<?xml version="1.0"?>
<VTKFile type="PolyData" version="1.0" byte_order="LittleEndian" header_type="UInt64">
  <PolyData>
    <Piece NumberOfPoints="347" NumberOfVerts="0" NumberOfLines="1" NumberOfStrips="0" NumberOfPolys="0">
      <FieldData>
        <DataArray Name="TimeValue" NumberOfTuples="1" type="Float64" format="ascii" RangeMin="0.122654987" RangeMax="0.122654987">
          0.1226549870000000
        </DataArray>
      </FieldData>
      <PointData>
        <DataArray Name="volume" NumberOfComponents="1" type="Float32" format="ascii" RangeMin="534.9000244140625" RangeMax="10591.900390625">
          1557.5000000000000000 2462.6000976562500000 1186.0999755859375000 1025.9000244140625000 1323.9000244140625000 2354.0000000000000000
          1759.6999511718750000 2164.5000000000000000 1357.1999511718750000 1931.3000488281250000 1329.5999755859375000 1854.3000488281250000
          1709.0999755859375000 1922.4000244140625000 1299.5000000000000000 1604.1999511718750000 2374.0000000000000000 1463.9000244140625000
          3336.8999023437500000 2413.5000000000000000 534.9000244140625000 1337.9000244140625000 1104.5999755859375000 1678.5000000000000000
          3221.3999023437500000 2068.1999511718750000 1951.9000244140625000 1302.8000488281250000 2478.1000976562500000 2718.8000488281250000
          2217.0000000000000000 4339.8999023437500000 4385.2001953125000000 2661.5000000000000000 1911.5999755859375000 3962.6999511718750000
          10208.0996093750000000 5222.7001953125000000 3023.0000000000000000 3296.6000976562500000 1786.6999511718750000 2516.1000976562500000
          2056.6999511718750000 3678.3999023437500000 3196.1000976562500000 1453.1999511718750000 3387.3999023437500000 4378.7001953125000000
          2434.3999023437500000 2331.6999511718750000 2595.1000976562500000 2066.6000976562500000 4182.0000000000000000 1211.0000000000000000
          2483.6999511718750000 1976.8000488281250000 2385.3000488281250000 1865.8000488281250000 1759.6999511718750000 1756.6999511718750000
          1001.0000000000000000 1415.9000244140625000 4858.7001953125000000 2429.0000000000000000 2301.3999023437500000 2953.1999511718750000
          5765.0000000000000000 2835.3999023437500000 2272.3000488281250000 1533.0999755859375000 1311.1999511718750000 1311.1999511718750000
          1311.1999511718750000 1311.1999511718750000 1311.1999511718750000 1844.8000488281250000 2570.0000000000000000 2379.8000488281250000
          1735.0999755859375000 4218.7001953125000000 10591.9003906250000000 4089.1000976562500000 2214.8999023437500000 1542.9000244140625000
          2089.5000000000000000 1827.5999755859375000 2152.6999511718750000 1763.8000488281250000 3559.8999023437500000 2008.4000244140625000
          1978.0999755859375000 1565.5999755859375000 1873.6999511718750000 1494.1999511718750000 2290.1999511718750000 1276.9000244140625000
          1195.1999511718750000 1652.9000244140625000 1061.6999511718750000 2030.9000244140625000 1616.5000000000000000 1721.5000000000000000
          1783.6999511718750000 3740.1000976562500000 1688.3000488281250000 1883.4000244140625000 3256.1999511718750000 2701.0000000000000000
          1849.3000488281250000 2670.3999023437500000 2040.9000244140625000 2982.0000000000000000 3356.5000000000000000 3164.3999023437500000
          4131.2001953125000000 3460.3999023437500000 2337.8000488281250000 1930.0000000000000000 1774.9000244140625000 1308.5000000000000000
          1302.3000488281250000 1888.1999511718750000 3496.1000976562500000 2628.0000000000000000 2639.0000000000000000 3120.0000000000000000
          2097.5000000000000000 2207.6999511718750000 8204.7001953125000000 5660.5000000000000000 3062.3999023437500000 2217.1999511718750000
          2297.5000000000000000 1908.5999755859375000 1608.5000000000000000 1376.5999755859375000 1500.3000488281250000 1041.0999755859375000
          1880.0000000000000000 1985.4000244140625000 1546.6999511718750000 922.0999755859375000 1595.0000000000000000 5396.8999023437500000
          4794.6000976562500000 3771.8999023437500000 3740.1000976562500000 2074.1000976562500000 2800.8000488281250000 3678.3999023437500000
          2292.0000000000000000 1361.5999755859375000 1504.0999755859375000 1689.5999755859375000 2475.8999023437500000 2381.3999023437500000
          2344.1999511718750000 1399.0999755859375000 1087.6999511718750000 2164.5000000000000000 2778.6000976562500000 1789.3000488281250000
          1432.4000244140625000 3034.1000976562500000 1557.6999511718750000 2477.3000488281250000 1327.0000000000000000 1154.3000488281250000
          2256.8000488281250000 3876.0000000000000000 2271.1000976562500000 2733.1999511718750000 2788.3999023437500000 1846.0999755859375000
          1717.4000244140625000 2315.3999023437500000 2698.6999511718750000 2992.6999511718750000 2481.1999511718750000 3002.6999511718750000
          2478.3000488281250000 1655.5999755859375000 1835.0999755859375000 3189.3000488281250000 8247.5996093750000000 3714.1999511718750000
          2342.1999511718750000 2896.8999023437500000 1261.8000488281250000 1692.8000488281250000 1771.4000244140625000 2083.8000488281250000
          1354.1999511718750000 2046.4000244140625000 1599.9000244140625000 1676.5999755859375000 3013.0000000000000000 2707.6000976562500000
          2445.6999511718750000 1936.5999755859375000 1051.0999755859375000 2035.0999755859375000 2945.1999511718750000 4194.7001953125000000
          4215.0000000000000000 2968.6000976562500000 2911.3000488281250000 2799.1999511718750000 4826.3999023437500000 4144.1000976562500000
          2218.3999023437500000 1876.3000488281250000 2471.6999511718750000 2778.5000000000000000 1464.1999511718750000 1246.3000488281250000
          2030.5000000000000000 1364.3000488281250000 2309.1999511718750000 1205.9000244140625000 2903.1999511718750000 2536.5000000000000000
          4628.8999023437500000 1848.5000000000000000 2745.1999511718750000 3637.1000976562500000 2120.6000976562500000 1460.3000488281250000
          1764.8000488281250000 1115.6999511718750000 1300.0000000000000000 2306.1999511718750000 2039.8000488281250000 1166.5000000000000000
          1720.5000000000000000 2691.5000000000000000 1809.1999511718750000 4495.6000976562500000 1804.9000244140625000 2807.6000976562500000
          3230.1000976562500000 2341.6000976562500000 2040.5000000000000000 1448.4000244140625000 2463.3999023437500000 3934.1999511718750000
          5216.3999023437500000 3377.3999023437500000 2599.1999511718750000 1987.3000488281250000 1249.5999755859375000 2570.6999511718750000
          1392.4000244140625000 2500.0000000000000000 2669.6000976562500000 1661.4000244140625000 3242.8999023437500000 2278.8999023437500000
          1080.0999755859375000 1512.4000244140625000 1269.0000000000000000 1994.6999511718750000 1346.5000000000000000 1961.5999755859375000
          1658.0000000000000000 1994.0000000000000000 2049.6000976562500000 1928.8000488281250000 1315.5999755859375000 1717.9000244140625000
          2471.5000000000000000 2205.1000976562500000 1356.5000000000000000 2044.1999511718750000 1885.3000488281250000 2944.0000000000000000
          2407.1000976562500000 1726.8000488281250000 3211.8999023437500000 2656.8999023437500000 938.4000244140625000 1355.4000244140625000
          1911.1999511718750000 1445.1999511718750000 1167.9000244140625000 1994.6999511718750000 2270.8999023437500000 3040.5000000000000000
          1713.0000000000000000 3420.8000488281250000 2450.3000488281250000 2275.3999023437500000 2030.0999755859375000 1842.5999755859375000
          1711.4000244140625000 4766.5000000000000000 3808.5000000000000000 2152.1000976562500000 2733.0000000000000000 1417.8000488281250000
          2741.8999023437500000 3292.0000000000000000 1364.4000244140625000 2505.3000488281250000 1450.6999511718750000 1496.4000244140625000
          1221.8000488281250000 1696.4000244140625000 1624.6999511718750000 1557.0000000000000000 1716.0000000000000000 2206.6000976562500000
          1563.5999755859375000 2053.1999511718750000 1799.5000000000000000 2050.5000000000000000 2410.8000488281250000 5564.0000000000000000
          5043.2998046875000000 3450.6000976562500000 3033.3000488281250000 3128.3999023437500000 2373.1000976562500000 3489.6999511718750000
          2266.8999023437500000 1771.0999755859375000 2845.6999511718750000 2965.1999511718750000 1842.1999511718750000 1988.1999511718750000
          2416.1000976562500000 2764.1000976562500000 2579.5000000000000000 2028.5000000000000000 1353.0000000000000000 2971.3999023437500000
          2957.1000976562500000 2618.0000000000000000 1895.0999755859375000 1684.5999755859375000 2008.3000488281250000 2428.3000488281250000
          2115.6000976562500000 2581.0000000000000000 1903.1999511718750000 1381.4000244140625000 1381.4000244140625000
        </DataArray>
      </PointData>
      <Points>
        <DataArray Name="Points" NumberOfComponents="3" type="Float32" format="ascii" RangeMin="0.0" RangeMax="834.0">
          242.0000000000000000 44.6250000000000000 0.0000000000000000 243.0000000000000000 45.7500000000000000 0.0000000000000000
          245.0000000000000000 46.0000000000000000 0.0000000000000000 246.0000000000000000 45.8750000000000000 0.0000000000000000
          250.0000000000000000 45.5000000000000000 0.0000000000000000 251.0000000000000000 44.3750000000000000 0.0000000000000000
          252.0000000000000000 44.3750000000000000 0.0000000000000000 253.0000000000000000 43.7500000000000000 0.0000000000000000
          256.0000000000000000 43.8750000000000000 0.0000000000000000 258.0000000000000000 43.6250000000000000 0.0000000000000000
          263.0000000000000000 42.2500000000000000 0.0000000000000000 264.0000000000000000 42.2500000000000000 0.0000000000000000
          265.0000000000000000 41.8750000000000000 0.0000000000000000 266.0000000000000000 41.8750000000000000 0.0000000000000000
          267.0000000000000000 41.7500000000000000 0.0000000000000000 270.0000000000000000 41.7500000000000000 0.0000000000000000
          271.0000000000000000 41.7500000000000000 0.0000000000000000 273.0000000000000000 42.0000000000000000 0.0000000000000000
          274.0000000000000000 43.7500000000000000 0.0000000000000000 277.0000000000000000 44.1250000000000000 0.0000000000000000
          284.0000000000000000 44.1250000000000000 0.0000000000000000 285.0000000000000000 43.7500000000000000 0.0000000000000000
          286.0000000000000000 43.1250000000000000 0.0000000000000000 287.0000000000000000 42.6250000000000000 0.0000000000000000
          288.0000000000000000 44.5000000000000000 0.0000000000000000 291.0000000000000000 44.0000000000000000 0.0000000000000000
          292.0000000000000000 43.3750000000000000 0.0000000000000000 293.0000000000000000 43.6250000000000000 0.0000000000000000
          294.0000000000000000 45.0000000000000000 0.0000000000000000 295.0000000000000000 44.5000000000000000 0.0000000000000000
          298.0000000000000000 44.8750000000000000 0.0000000000000000 299.0000000000000000 46.1250000000000000 0.0000000000000000
          300.0000000000000000 46.0000000000000000 0.0000000000000000 301.0000000000000000 45.7500000000000000 0.0000000000000000
          302.0000000000000000 46.0000000000000000 0.0000000000000000 305.0000000000000000 47.7500000000000000 0.0000000000000000
          306.0000000000000000 50.8750000000000000 0.0000000000000000 307.0000000000000000 50.7500000000000000 0.0000000000000000
          308.0000000000000000 49.7500000000000000 0.0000000000000000 309.0000000000000000 49.8750000000000000 0.0000000000000000
          312.0000000000000000 50.2500000000000000 0.0000000000000000 313.0000000000000000 49.1250000000000000 0.0000000000000000
          314.0000000000000000 49.8750000000000000 0.0000000000000000 315.0000000000000000 52.0000000000000000 0.0000000000000000
          316.0000000000000000 51.5000000000000000 0.0000000000000000 319.0000000000000000 51.0000000000000000 0.0000000000000000
          320.0000000000000000 52.8750000000000000 0.0000000000000000 321.0000000000000000 51.8750000000000000 0.0000000000000000
          322.0000000000000000 52.7500000000000000 0.0000000000000000 323.0000000000000000 51.8750000000000000 0.0000000000000000
          326.0000000000000000 52.0000000000000000 0.0000000000000000 327.0000000000000000 53.1250000000000000 0.0000000000000000
          328.0000000000000000 55.1250000000000000 0.0000000000000000 330.0000000000000000 55.7500000000000000 0.0000000000000000
          333.0000000000000000 54.3750000000000000 0.0000000000000000 334.0000000000000000 53.8750000000000000 0.0000000000000000
          335.0000000000000000 53.1250000000000000 0.0000000000000000 336.0000000000000000 53.7500000000000000 0.0000000000000000
          337.0000000000000000 53.5000000000000000 0.0000000000000000 340.0000000000000000 53.7500000000000000 0.0000000000000000
          342.0000000000000000 53.8750000000000000 0.0000000000000000 343.0000000000000000 53.6250000000000000 0.0000000000000000
          347.0000000000000000 57.3750000000000000 0.0000000000000000 348.0000000000000000 56.0000000000000000 0.0000000000000000
          349.0000000000000000 56.8750000000000000 0.0000000000000000 350.0000000000000000 57.5000000000000000 0.0000000000000000
          351.0000000000000000 59.7500000000000000 0.0000000000000000 354.0000000000000000 58.3750000000000000 0.0000000000000000
          355.0000000000000000 58.6250000000000000 0.0000000000000000 356.0000000000000000 59.2500000000000000 0.0000000000000000
          357.0000000000000000 58.6250000000000000 0.0000000000000000 358.0000000000000000 58.6250000000000000 0.0000000000000000
          363.0000000000000000 58.6250000000000000 0.0000000000000000 364.0000000000000000 58.6250000000000000 0.0000000000000000
          365.0000000000000000 58.6250000000000000 0.0000000000000000 369.0000000000000000 59.0000000000000000 0.0000000000000000
          370.0000000000000000 59.5000000000000000 0.0000000000000000 371.0000000000000000 58.5000000000000000 0.0000000000000000
          375.0000000000000000 59.2500000000000000 0.0000000000000000 389.0000000000000000 58.6250000000000000 0.0000000000000000
          390.0000000000000000 58.2500000000000000 0.0000000000000000 391.0000000000000000 56.5000000000000000 0.0000000000000000
          392.0000000000000000 57.1250000000000000 0.0000000000000000 393.0000000000000000 57.6250000000000000 0.0000000000000000
          396.0000000000000000 56.7500000000000000 0.0000000000000000 397.0000000000000000 56.6250000000000000 0.0000000000000000
          398.0000000000000000 56.2500000000000000 0.0000000000000000 399.0000000000000000 55.7500000000000000 0.0000000000000000
          400.0000000000000000 52.0000000000000000 0.0000000000000000 404.0000000000000000 53.7500000000000000 0.0000000000000000
          405.0000000000000000 53.2500000000000000 0.0000000000000000 406.0000000000000000 52.8750000000000000 0.0000000000000000
          410.0000000000000000 54.0000000000000000 0.0000000000000000 412.0000000000000000 54.5000000000000000 0.0000000000000000
          413.0000000000000000 52.7500000000000000 0.0000000000000000 418.0000000000000000 53.6250000000000000 0.0000000000000000
          419.0000000000000000 53.5000000000000000 0.0000000000000000 420.0000000000000000 52.8750000000000000 0.0000000000000000
          421.0000000000000000 52.8750000000000000 0.0000000000000000 425.0000000000000000 53.6250000000000000 0.0000000000000000
          427.0000000000000000 52.6250000000000000 0.0000000000000000 428.0000000000000000 52.6250000000000000 0.0000000000000000
          431.0000000000000000 52.2500000000000000 0.0000000000000000 433.0000000000000000 55.3750000000000000 0.0000000000000000
          435.0000000000000000 55.8750000000000000 0.0000000000000000 440.0000000000000000 58.2500000000000000 0.0000000000000000
          442.0000000000000000 57.1250000000000000 0.0000000000000000 445.0000000000000000 58.6250000000000000 0.0000000000000000
          446.0000000000000000 58.2500000000000000 0.0000000000000000 447.0000000000000000 57.2500000000000000 0.0000000000000000
          448.0000000000000000 56.3750000000000000 0.0000000000000000 449.0000000000000000 53.8750000000000000 0.0000000000000000
          452.0000000000000000 53.6250000000000000 0.0000000000000000 453.0000000000000000 52.6250000000000000 0.0000000000000000
          454.0000000000000000 53.3750000000000000 0.0000000000000000 455.0000000000000000 54.6250000000000000 0.0000000000000000
          460.0000000000000000 53.3750000000000000 0.0000000000000000 461.0000000000000000 53.1250000000000000 0.0000000000000000
          462.0000000000000000 53.1250000000000000 0.0000000000000000 463.0000000000000000 52.6250000000000000 0.0000000000000000
          466.0000000000000000 53.0000000000000000 0.0000000000000000 467.0000000000000000 52.8750000000000000 0.0000000000000000
          468.0000000000000000 52.3750000000000000 0.0000000000000000 469.0000000000000000 53.8750000000000000 0.0000000000000000
          470.0000000000000000 53.0000000000000000 0.0000000000000000 473.0000000000000000 53.3750000000000000 0.0000000000000000
          474.0000000000000000 53.4379997253417969 0.0000000000000000 475.0000000000000000 52.2500000000000000 0.0000000000000000
          476.0000000000000000 58.3750000000000000 0.0000000000000000 478.0000000000000000 58.7500000000000000 0.0000000000000000
          480.0000000000000000 59.2500000000000000 0.0000000000000000 481.0000000000000000 58.5000000000000000 0.0000000000000000
          483.0000000000000000 57.1250000000000000 0.0000000000000000 484.0000000000000000 57.5000000000000000 0.0000000000000000
          487.0000000000000000 58.0000000000000000 0.0000000000000000 488.0000000000000000 58.3750000000000000 0.0000000000000000
          489.0000000000000000 57.7500000000000000 0.0000000000000000 490.0000000000000000 57.1250000000000000 0.0000000000000000
          494.0000000000000000 57.0000000000000000 0.0000000000000000 495.0000000000000000 58.0000000000000000 0.0000000000000000
          496.0000000000000000 57.2500000000000000 0.0000000000000000 497.0000000000000000 57.2500000000000000 0.0000000000000000
          501.0000000000000000 58.5000000000000000 0.0000000000000000 502.0000000000000000 61.2500000000000000 0.0000000000000000
          503.0000000000000000 60.7500000000000000 0.0000000000000000 504.0000000000000000 61.3750000000000000 0.0000000000000000
          505.0000000000000000 62.1250000000000000 0.0000000000000000 508.0000000000000000 61.7500000000000000 0.0000000000000000
          509.0000000000000000 63.1250000000000000 0.0000000000000000 510.0000000000000000 63.6250000000000000 0.0000000000000000
          511.0000000000000000 63.2500000000000000 0.0000000000000000 512.0000000000000000 63.6250000000000000 0.0000000000000000
          516.0000000000000000 63.0000000000000000 0.0000000000000000 517.0000000000000000 63.5000000000000000 0.0000000000000000
          518.0000000000000000 62.0000000000000000 0.0000000000000000 519.0000000000000000 61.0000000000000000 0.0000000000000000
          522.0000000000000000 62.6250000000000000 0.0000000000000000 523.0000000000000000 62.6250000000000000 0.0000000000000000
          525.0000000000000000 62.0000000000000000 0.0000000000000000 529.0000000000000000 63.7500000000000000 0.0000000000000000
          530.0000000000000000 65.0000000000000000 0.0000000000000000 531.0000000000000000 63.7500000000000000 0.0000000000000000
          532.0000000000000000 62.8750000000000000 0.0000000000000000 533.0000000000000000 62.3750000000000000 0.0000000000000000
          536.0000000000000000 61.6250000000000000 0.0000000000000000 537.0000000000000000 61.0000000000000000 0.0000000000000000
          538.0000000000000000 62.0000000000000000 0.0000000000000000 539.0000000000000000 60.8750000000000000 0.0000000000000000
          540.0000000000000000 59.8750000000000000 0.0000000000000000 543.0000000000000000 61.5000000000000000 0.0000000000000000
          545.0000000000000000 60.3750000000000000 0.0000000000000000 546.0000000000000000 58.7500000000000000 0.0000000000000000
          551.0000000000000000 56.2500000000000000 0.0000000000000000 552.0000000000000000 57.0000000000000000 0.0000000000000000
          553.0000000000000000 56.7500000000000000 0.0000000000000000 554.0000000000000000 56.6250000000000000 0.0000000000000000
          557.0000000000000000 55.6250000000000000 0.0000000000000000 558.0000000000000000 55.7500000000000000 0.0000000000000000
          559.0000000000000000 56.7500000000000000 0.0000000000000000 560.0000000000000000 58.2500000000000000 0.0000000000000000
          561.0000000000000000 56.8750000000000000 0.0000000000000000 564.0000000000000000 56.8750000000000000 0.0000000000000000
          565.0000000000000000 55.6250000000000000 0.0000000000000000 566.0000000000000000 55.8750000000000000 0.0000000000000000
          567.0000000000000000 60.2500000000000000 0.0000000000000000 568.0000000000000000 61.3750000000000000 0.0000000000000000
          571.0000000000000000 62.2500000000000000 0.0000000000000000 572.0000000000000000 62.3750000000000000 0.0000000000000000
          574.0000000000000000 62.2500000000000000 0.0000000000000000 575.0000000000000000 61.8750000000000000 0.0000000000000000
          578.0000000000000000 62.8750000000000000 0.0000000000000000 579.0000000000000000 62.2500000000000000 0.0000000000000000
          580.0000000000000000 63.0000000000000000 0.0000000000000000 581.0000000000000000 63.1250000000000000 0.0000000000000000
          582.0000000000000000 62.3750000000000000 0.0000000000000000 585.0000000000000000 63.2500000000000000 0.0000000000000000
          586.0000000000000000 64.5000000000000000 0.0000000000000000 587.0000000000000000 64.2500000000000000 0.0000000000000000
          588.0000000000000000 64.6250000000000000 0.0000000000000000 589.0000000000000000 63.7500000000000000 0.0000000000000000
          592.0000000000000000 64.2500000000000000 0.0000000000000000 593.0000000000000000 64.6250000000000000 0.0000000000000000
          594.0000000000000000 64.8750000000000000 0.0000000000000000 595.0000000000000000 66.2500000000000000 0.0000000000000000
          596.0000000000000000 68.1250000000000000 0.0000000000000000 599.0000000000000000 67.7500000000000000 0.0000000000000000
          600.0000000000000000 67.6250000000000000 0.0000000000000000 601.0000000000000000 67.3750000000000000 0.0000000000000000
          602.0000000000000000 69.6250000000000000 0.0000000000000000 603.0000000000000000 70.0000000000000000 0.0000000000000000
          606.0000000000000000 69.3750000000000000 0.0000000000000000 607.0000000000000000 69.5000000000000000 0.0000000000000000
          608.0000000000000000 68.5000000000000000 0.0000000000000000 609.0000000000000000 67.8750000000000000 0.0000000000000000
          610.0000000000000000 67.2500000000000000 0.0000000000000000 614.0000000000000000 67.5000000000000000 0.0000000000000000
          615.0000000000000000 67.5000000000000000 0.0000000000000000 616.0000000000000000 67.8750000000000000 0.0000000000000000
          617.0000000000000000 67.8750000000000000 0.0000000000000000 620.0000000000000000 67.8750000000000000 0.0000000000000000
          621.0000000000000000 69.1250000000000000 0.0000000000000000 622.0000000000000000 69.7500000000000000 0.0000000000000000
          624.0000000000000000 71.0000000000000000 0.0000000000000000 627.0000000000000000 70.3750000000000000 0.0000000000000000
          628.0000000000000000 70.2500000000000000 0.0000000000000000 629.0000000000000000 69.5000000000000000 0.0000000000000000
          630.0000000000000000 69.6250000000000000 0.0000000000000000 631.0000000000000000 69.1250000000000000 0.0000000000000000
          634.0000000000000000 69.0000000000000000 0.0000000000000000 635.0000000000000000 69.0000000000000000 0.0000000000000000
          636.0000000000000000 68.5000000000000000 0.0000000000000000 637.0000000000000000 69.5000000000000000 0.0000000000000000
          638.0000000000000000 69.6250000000000000 0.0000000000000000 641.0000000000000000 68.8750000000000000 0.0000000000000000
          642.0000000000000000 68.3750000000000000 0.0000000000000000 643.0000000000000000 69.1250000000000000 0.0000000000000000
          644.0000000000000000 68.7500000000000000 0.0000000000000000 645.0000000000000000 71.1250000000000000 0.0000000000000000
          648.0000000000000000 71.5000000000000000 0.0000000000000000 649.0000000000000000 71.6250000000000000 0.0000000000000000
          650.0000000000000000 73.1250000000000000 0.0000000000000000 651.0000000000000000 72.2500000000000000 0.0000000000000000
          652.0000000000000000 73.0000000000000000 0.0000000000000000 655.0000000000000000 73.2500000000000000 0.0000000000000000
          656.0000000000000000 74.5000000000000000 0.0000000000000000 657.0000000000000000 75.3750000000000000 0.0000000000000000
          658.0000000000000000 75.0000000000000000 0.0000000000000000 659.0000000000000000 74.6250000000000000 0.0000000000000000
          662.0000000000000000 73.0000000000000000 0.0000000000000000 663.0000000000000000 73.0000000000000000 0.0000000000000000
          665.0000000000000000 74.1250000000000000 0.0000000000000000 666.0000000000000000 76.0000000000000000 0.0000000000000000
          669.0000000000000000 75.2500000000000000 0.0000000000000000 670.0000000000000000 73.8750000000000000 0.0000000000000000
          671.0000000000000000 74.2500000000000000 0.0000000000000000 672.0000000000000000 73.3750000000000000 0.0000000000000000
          673.0000000000000000 71.1250000000000000 0.0000000000000000 676.0000000000000000 71.8750000000000000 0.0000000000000000
          677.0000000000000000 73.0000000000000000 0.0000000000000000 683.0000000000000000 72.8750000000000000 0.0000000000000000
          685.0000000000000000 72.7500000000000000 0.0000000000000000 697.0000000000000000 70.6250000000000000 0.0000000000000000
          698.0000000000000000 70.6250000000000000 0.0000000000000000 699.0000000000000000 70.7500000000000000 0.0000000000000000
          700.0000000000000000 69.5000000000000000 0.0000000000000000 701.0000000000000000 71.3750000000000000 0.0000000000000000
          704.0000000000000000 71.3750000000000000 0.0000000000000000 705.0000000000000000 71.6250000000000000 0.0000000000000000
          706.0000000000000000 71.2500000000000000 0.0000000000000000 707.0000000000000000 70.1250000000000000 0.0000000000000000
          708.0000000000000000 71.3750000000000000 0.0000000000000000 711.0000000000000000 70.7500000000000000 0.0000000000000000
          712.0000000000000000 69.7500000000000000 0.0000000000000000 713.0000000000000000 70.2500000000000000 0.0000000000000000
          714.0000000000000000 70.5000000000000000 0.0000000000000000 715.0000000000000000 70.1250000000000000 0.0000000000000000
          718.0000000000000000 71.6250000000000000 0.0000000000000000 719.0000000000000000 70.7500000000000000 0.0000000000000000
          720.0000000000000000 73.6250000000000000 0.0000000000000000 721.0000000000000000 73.5000000000000000 0.0000000000000000
          722.0000000000000000 73.5000000000000000 0.0000000000000000 727.0000000000000000 72.8750000000000000 0.0000000000000000
          728.0000000000000000 74.3750000000000000 0.0000000000000000 729.0000000000000000 73.5000000000000000 0.0000000000000000
          733.0000000000000000 73.7500000000000000 0.0000000000000000 734.0000000000000000 74.3750000000000000 0.0000000000000000
          735.0000000000000000 74.0000000000000000 0.0000000000000000 736.0000000000000000 75.1250000000000000 0.0000000000000000
          739.0000000000000000 75.5000000000000000 0.0000000000000000 740.0000000000000000 76.6250000000000000 0.0000000000000000
          741.0000000000000000 76.0000000000000000 0.0000000000000000 742.0000000000000000 76.0000000000000000 0.0000000000000000
          743.0000000000000000 76.3750000000000000 0.0000000000000000 748.0000000000000000 77.2500000000000000 0.0000000000000000
          749.0000000000000000 76.5000000000000000 0.0000000000000000 753.0000000000000000 74.2500000000000000 0.0000000000000000
          755.0000000000000000 72.3750000000000000 0.0000000000000000 756.0000000000000000 72.3750000000000000 0.0000000000000000
          757.0000000000000000 72.5000000000000000 0.0000000000000000 760.0000000000000000 71.7500000000000000 0.0000000000000000
          761.0000000000000000 72.2500000000000000 0.0000000000000000 762.0000000000000000 73.6250000000000000 0.0000000000000000
          763.0000000000000000 74.3750000000000000 0.0000000000000000 764.0000000000000000 74.6250000000000000 0.0000000000000000
          768.0000000000000000 74.2500000000000000 0.0000000000000000 769.0000000000000000 74.2500000000000000 0.0000000000000000
          774.0000000000000000 74.8750000000000000 0.0000000000000000 775.0000000000000000 75.6250000000000000 0.0000000000000000
          776.0000000000000000 75.5000000000000000 0.0000000000000000 782.0000000000000000 74.2500000000000000 0.0000000000000000
          783.0000000000000000 74.2500000000000000 0.0000000000000000 784.0000000000000000 74.2500000000000000 0.0000000000000000
          785.0000000000000000 74.8750000000000000 0.0000000000000000 788.0000000000000000 74.0000000000000000 0.0000000000000000
          789.0000000000000000 75.2500000000000000 0.0000000000000000 790.0000000000000000 75.3750000000000000 0.0000000000000000
          791.0000000000000000 77.2500000000000000 0.0000000000000000 792.0000000000000000 79.8750000000000000 0.0000000000000000
          795.0000000000000000 80.2500000000000000 0.0000000000000000 796.0000000000000000 79.7500000000000000 0.0000000000000000
          797.0000000000000000 79.7500000000000000 0.0000000000000000 798.0000000000000000 80.6250000000000000 0.0000000000000000