<?xml version="1.0"?>
<VTKFile type="PolyData" version="1.0" byte_order="LittleEndian" header_type="UInt64">
  <PolyData>
    <Piece NumberOfPoints="10" NumberOfVerts="0" NumberOfLines="5" NumberOfStrips="0" NumberOfPolys="0">
    <PointData>
        <DataArray Name="temp" NumberOfComponents="1" type="Float64" format="ascii" RangeMin="0.16424223994879505" RangeMax="0.9583212604144772">
          0.3983165366318399 0.3844327849581031 0.7481868168265932 0.2823305501768082 0.1642422399487951 0.2042679998357511
          0.9583212604144772 0.3995133455800379 0.5459642208501608 0.5980078810702200
        </DataArray>
        <DataArray Name="pressure" NumberOfComponents="1" type="Float64" format="ascii" RangeMin="0.213224492054377" RangeMax="0.9681967182176967">
          0.5232633927110754 0.3560494105104665 0.9243751540367312 0.6175543967037361 0.6431716315977716 0.9681967182176967
          0.2132244920543770 0.6320226124400673 0.4469755558450341 0.4672242211058258
        </DataArray>
        <DataArray Name="point_scales" NumberOfComponents="1" type="Float64" format="ascii" RangeMin="0.018890726796434" RangeMax="0.752036369888802">
          0.3697840808569901 0.3697840808569901 0.5774564390907218 0.5774564390907218 0.0188907267964340 0.0188907267964340
          0.3913319566374115 0.3913319566374115 0.7520363698888020 0.7520363698888020
        </DataArray>
      </PointData>
    <CellData>
        <DataArray Name="velocity" NumberOfComponents="1" type="Int64" format="ascii" RangeMin="1" RangeMax="5">
          1 2 3 4 5
        </DataArray>
        <DataArray Name="cell_scales" NumberOfComponents="1" type="Float64" format="ascii" RangeMin="0.018890726796434" RangeMax="0.752036369888802">
          0.3697840808569901 0.5774564390907218 0.0188907267964340 0.3913319566374115 0.7520363698888020
        </DataArray>
      </CellData>
      <Points>
        <DataArray Name="Points" NumberOfComponents="3" type="Float64" format="ascii" RangeMin="0.0" RangeMax="3.0">
          0.0000000000000000 0.0000000000000000 0.0000000000000000 1.0000000000000000 1.0000000000000000 0.0000000000000000
          1.0000000000000000 1.0000000000000000 0.0000000000000000 2.0000000000000000 0.0000000000000000 0.0000000000000000
          2.0000000000000000 0.0000000000000000 0.0000000000000000 3.0000000000000000 1.5000000000000000 0.0000000000000000
          0.0000000000000000 0.0000000000000000 3.0000000000000000 1.0000000000000000 1.0000000000000000 3.0000000000000000
          1.0000000000000000 1.0000000000000000 3.0000000000000000 2.0000000000000000 0.0000000000000000 3.0000000000000000
        </DataArray>
      </Points>
      <Verts>
      </Verts>
      <Lines>
        <DataArray Name="connectivity" type="Int32" format="ascii" RangeMin="0" RangeMax="9">
          0 1 2 3 4 5 6 7 8 9
        </DataArray>
        <DataArray Name="offsets" type="Int64" format="ascii" RangeMin="2" RangeMax="10">
          2 4 6 8 10
        </DataArray>
      </Lines>
      <Strips>
      </Strips>
      <Polys>
      </Polys>
    </Piece>
  </PolyData>
