<?xml version="1.0"?>
<VTKFile type="PolyData" version="1.0" byte_order="LittleEndian" header_type="UInt64">
  <PolyData>
    <Piece NumberOfPoints="7" NumberOfVerts="0" NumberOfLines="5" NumberOfStrips="0" NumberOfPolys="0">
    <PointData>
        <DataArray Name="1_temp" NumberOfComponents="1" type="Float64" format="ascii" RangeMin="0.09788508659919304" RangeMax="0.9554385688908371">
          0.1033057882032156 0.6901719117150532 0.4479244816396298 0.9554385688908371 0.7526201947901212 0.5781336472337527
          0.0978850865991930
        </DataArray>
        <DataArray Name="2_pressure" NumberOfComponents="1" type="Float64" format="ascii" RangeMin="0.2676273113183325" RangeMax="0.9527908609710527">
          0.6282640504752013 0.2676273113183325 0.2850348633895688 0.4189057900623258 0.3503471398017745 0.3738729779940742
          0.9527908609710527
        </DataArray>
      </PointData>
    <CellData>
        <DataArray Name="velocity" NumberOfComponents="1" type="Int64" format="ascii" RangeMin="1" RangeMax="5">
          1 2 3 4 5
        </DataArray>
      </CellData>
      <Points>
        <DataArray Name="Points" NumberOfComponents="3" type="Float64" format="ascii" RangeMin="0.0" RangeMax="3.0">
          0.0000000000000000 0.0000000000000000 0.0000000000000000 1.0000000000000000 1.0000000000000000 0.0000000000000000
          2.0000000000000000 0.0000000000000000 0.0000000000000000 3.0000000000000000 1.5000000000000000 0.0000000000000000
          0.0000000000000000 0.0000000000000000 3.0000000000000000 1.0000000000000000 1.0000000000000000 3.0000000000000000
          2.0000000000000000 0.0000000000000000 3.0000000000000000
        </DataArray>
      </Points>
      <Verts>
      </Verts>
      <Lines>
        <DataArray Name="connectivity" type="Int64" format="ascii" RangeMin="0" RangeMax="6">
          0 1 1 2 2 3 4 5 5 6
        </DataArray>
        <DataArray Name="offsets" type="Int64" format="ascii" RangeMin="2" RangeMax="10">
          2 4 6 8 10
        </DataArray>
      </Lines>
      <Strips>
      </Strips>
      <Polys>
      </Polys>
    </Piece>
  </PolyData>
