<?xml version="1.0"?>
<VTKFile type="UnstructuredGrid" version="1.0" byte_order="LittleEndian" header_type="UInt64">
  <UnstructuredGrid>
    <Piece NumberOfPoints="27" NumberOfCells="11">
    <PointData Vectors="velocity">
        <DataArray Name="velocity" NumberOfComponents="3" type="Float64" format="ascii" RangeMin="0.03606131000291102" RangeMax="0.9986326035811655">
          0.9191090317991818 0.6421955999238554 0.7537122297291767 0.1393145681027350 0.0873195479896001 0.7880020580364918
          0.3261509370344888 0.5410678214759677 0.2402351758680060 0.5454229255759049 0.4005545036798892 0.7151918872797569
          0.8366799410811948 0.5884811425466829 0.2961545640333596 0.2810176906539642 0.7055972446574292 0.4225964301897521
          0.0573159852472062 0.7470273067071216 0.4523130130592968 0.1757747380313244 0.0493769993144870 0.2924753386949548
          0.0667991310914613 0.7511564859911245 0.0637715240806562 0.4319083194117714 0.3641724134430167 0.1519715256925609
          0.5467103397159158 0.4432930376023336 0.0360613100029110 0.8228931912295053 0.2732926831299841 0.1689852192728417
          0.6443697547109174 0.1075410788025926 0.3532450981171027 0.3857036581156064 0.4455559100158843 0.9770526614339072
          0.7293940090533850 0.3122350583311531 0.8947552392940534 0.7832735951745574 0.2620003413345412 0.3094831861549427
          0.1294506297724709 0.4221713562335928 0.9397650349673574 0.3670428731605497 0.4347749726828846 0.9170935543593193
          0.9472939210005341 0.2547729480887090 0.7097035779964328 0.0499764048396870 0.1347439306209732 0.5065059431067037
          0.5890720970505128 0.3268986086578718 0.1448144482177102 0.2576384903723663 0.8574458883976873 0.6839737520406283
          0.9986326035811655 0.3194556656082242 0.4534082266242594 0.8676221777748950 0.6385221808378060 0.3318923019829476
          0.5419776327479333 0.1123238088406830 0.8165234436255825 0.2209316463478144 0.5149742681090496 0.5260877679247680
          0.2770886884732112 0.9044206316605501 0.4204270035661765
        </DataArray>
      </PointData>
    <CellData Scalars="temp">
        <DataArray Name="temp" NumberOfComponents="1" type="Int64" format="ascii" RangeMin="1" RangeMax="11">
          1 2 3 4 5 6 7 8 9 10 11
        </DataArray>
      </CellData>
    <Points>
        <DataArray Name="Points" NumberOfComponents="3" type="Int64" format="ascii" RangeMin="0" RangeMax="6">
          0 0 0 1 0 0 2 0 0 0 1 0 1 1 0 2 1 0 0 0 1 1 0 1 2 0 1 0 1 1
          1 1 1 2 1 1 0 1 2 1 1 2 2 1 2 0 1 3 1 1 3 2 1 3 0 1 4 1 1 4
          2 1 4 0 1 5 1 1 5 2 1 5 0 1 6 1 1 6 2 1 6
        </DataArray>
      </Points>
    <Cells>
        <DataArray Name="connectivity" type="UInt32" format="ascii" RangeMin="0" RangeMax="26">
          0 1 4 3 6 7 10 9 1 2 4 5 7 8 10 11 6 10 9 12 11 14 10 13
          15 16 17 14 13 12 18 15 19 16 20 17 22 23 20 19 21 22 18 22 19 18 26 25
          24
        </DataArray>
        <DataArray Name="offsets" type="UInt32" format="ascii" RangeMin="8" RangeMax="46">
          8 16 20 24 30 33 37 40 43 45 46
        </DataArray>
        <DataArray Name="types" type="UInt8" format="ascii" RangeMin="1" RangeMax="12">
          12 11 10 8 7 6 9 5 4 3 1
        </DataArray>
      </Cells>
    </Piece>
  </UnstructuredGrid>
</VTKFile>