<?xml version="1.0"?>
<VTKFile type="PolyData" version="1.0" byte_order="LittleEndian" header_type="UInt64">
  <PolyData>
    <Piece NumberOfPoints="315" NumberOfVerts="0" NumberOfLines="0" NumberOfStrips="0" NumberOfPolys="312">
      <FieldData>
        <DataArray Name="TimeValue" NumberOfTuples="1" type="Float64" format="ascii" RangeMin="0.122654987" RangeMax="0.122654987">
          0.1226549870000000
        </DataArray>
      </FieldData>
      <PointData>
        <DataArray Name="mode1" NumberOfComponents="3" type="Float32" format="ascii" RangeMin="-0.07661999762058258" RangeMax="1.0">
          0.0000000000000000 0.0000000000000000 0.0000000000000000 0.0000000000000000 0.0000000000000000 0.0000000000000000
          0.0000000000000000 0.0000000000000000 0.0000000000000000 0.0000000000000000 0.0000000000000000 0.0000000000000000
          0.0000000000000000 0.0000000000000000 0.0000000000000000 -0.0000000299150003 0.0012708000140265 -0.0000000397320008
          0.0050087999552488 0.0033768001012504 0.0092879999428988 0.0023282999172807 0.0065414002165198 0.0088900998234749
          -0.0000000864629968 0.0148409996181726 -0.0000001192100001 0.0060471999458969 0.0161000005900860 0.0187010001391172
          0.0035033000167459 0.0206199996173382 0.0187229998409748 -0.0000002226300069 0.0380840003490448 -0.0000001456299970
          0.0063801999203861 0.0394649989902973 0.0275100003927946 0.0038902000524104 0.0444680005311966 0.0275940001010895
          -0.0000004262400068 0.0704670026898384 0.0000010799999473 0.0062552001327276 0.0716549977660179 0.0356569997966290
          0.0039618997834623 0.0766969993710518 0.0357270017266273 -0.0000012299000218 0.1107999980449677 -0.0000001386100053
          0.0058852001093328 0.1118699982762337 0.0429689995944500 0.0038034999743104 0.1166800037026405 0.0430309996008873
          -0.0000003756800027 0.1581699997186661 0.0000002463499982 0.0053747999481857 0.1591099947690964 0.0494639985263348
          0.0035198999103159 0.1635400056838989 0.0495209991931915 -0.0000011928000276 0.2116799950599670 -0.0000007105400073
          0.0047891000285745 0.2125000059604645 0.0551510006189346 0.0031600000802428 0.2164700031280518 0.0552040003240108
          -0.0000008357799857 0.2705000042915344 -0.0000025326000923 0.0041733998805285 0.2712000012397766 0.0600580014288425
          0.0027729000430554 0.2746799886226654 0.0601079985499382 -0.0000010267999642 0.3338199853897095 0.0000025081999411
          0.0035568000748754 0.3344199955463409 0.0642130002379417 0.0023713998962194 0.3373799920082092 0.0642599985003471
          -0.0000024650998967 0.4009000062942505 -0.0000002159400054 0.0029605000745505 0.4013800024986267 0.0676549971103668
          0.0019819000735879 0.4038600027561188 0.0676980018615723 -0.0000006974299822 0.4709999859333038 0.0000000750319984
          0.0023996001109481 0.4713799953460693 0.0704239979386330 0.0016157999634743 0.4733999967575073 0.0704649984836578
          -0.0000032606999412 0.5434700250625610 -0.0000020715999653 0.0018872000509873 0.5437700152397156 0.0725739970803261
          0.0012783999554813 0.5453600287437439 0.0726120024919510 -0.0000023775999125 0.6177099943161011 -0.0000112389998321
          0.0014250000240281 0.6179199814796448 0.0741709992289543 0.0009748800075613 0.6191400289535522 0.0742050036787987
          -0.0000004131399862 0.6931700110435486 -0.0000006560799761 0.0010153000475839 0.6933900117874146 0.0752779990434647
          0.0007146500283852 0.6942099928855896 0.0753059983253479 -0.0000031070001114 0.7693899869918823 0.0000060249999478
          0.0007215099758469 0.7695000171661377 0.0759819969534874 0.0005079099792056 0.7701299786567688 0.0760030001401901
          -0.0000024814000881 0.8460199832916260 0.0000015542999563 0.0004883399815299 0.8460599780082703 0.0763690024614334
          0.0003532700065989 0.8465099930763245 0.0763780027627945 -0.0000026221000553 0.9227799773216248 0.0000005871800113
          0.0002954700030386 0.9228699803352356 0.0765390023589134 0.0002688399981707 0.9230899810791016 0.0765499994158745
          -0.0000034018000861 0.9994099736213684 -0.0000002385799860 0.0002904600114562 0.9993900060653687 0.0765819996595383
          0.0002412000030745 0.9997199773788452 0.0766040012240410 -0.0000011529999711 0.9997900128364563 -0.0000001568100032
          0.0000000000000000 0.0000000000000000 0.0000000000000000 0.0000000000000000 0.0000000000000000 0.0000000000000000
          -0.0050089000724256 0.0033768001012504 -0.0092880995944142 -0.0023284000344574 0.0065414002165198 -0.0088902004063129
          -0.0060473000630736 0.0161000005900860 -0.0187010001391172 -0.0035033999010921 0.0206199996173382 -0.0187229998409748
          -0.0063809999264777 0.0394649989902973 -0.0275100003927946 -0.0038906999398023 0.0444680005311966 -0.0275940001010895
          -0.0062555000185966 0.0716539993882179 -0.0356579981744289 -0.0039622001349926 0.0766969993710518 -0.0357280001044273
          -0.0058816000819206 0.1118799969553947 -0.0429689995944500 -0.0038060001097620 0.1166800037026405 -0.0430309996008873
          -0.0053741000592709 0.1591099947690964 -0.0494639985263348 -0.0035196999087930 0.1635400056838989 -0.0495220012962818
          -0.0047829002141953 0.2125200033187866 -0.0551519989967346 -0.0031602999661118 0.2164700031280518 -0.0552060008049011
          -0.0041751000098884 0.2712000012397766 -0.0600589998066425 -0.0027751000598073 0.2746799886226654 -0.0601090006530285
          -0.0035582000855356 0.3344100117683411 -0.0642149969935417 -0.0023737000301480 0.3373799920082092 -0.0642620027065277
          -0.0029506001155823 0.4014199972152710 -0.0676549971103668 -0.0019839999731630 0.4038499891757965 -0.0676999986171722
          -0.0023980000987649 0.4713799953460693 -0.0704260021448135 -0.0016177999787033 0.4733999967575073 -0.0704670026898384
          -0.0018725000554696 0.5438100099563599 -0.0725800022482872 -0.0012815999798477 0.5453500151634216 -0.0726149976253510
          -0.0014316999586299 0.6179199814796448 -0.0741730034351349 -0.0009844599990174 0.6191400289535522 -0.0742029994726181
          -0.0010471000568941 0.6933199763298035 -0.0752800032496452 -0.0007296099793166 0.6942200064659119 -0.0753059983253479
          -0.0007319099968299 0.7695000171661377 -0.0759819969534874 -0.0005203700275160 0.7701299786567688 -0.0760039985179901
          -0.0004933699965477 0.8460599780082703 -0.0763659998774529 -0.0003619200142566 0.8465099930763245 -0.0763750001788139
          -0.0003013800014742 0.9228699803352356 -0.0765369981527328 -0.0002776499895845 0.9230899810791016 -0.0765469968318939
          -0.0002983199956361 0.9993900060653687 -0.0765789970755577 -0.0002527300093789 0.9997199773788452 -0.0766000002622604
          0.0000000000000000 0.0000000000000000 0.0000000000000000 0.0000000000000000 0.0000000000000000 0.0000000000000000
          0.0009272799943574 0.0076787001453340 0.0096119996160269 0.0014642999740317 0.0227150004357100 0.0191469993442297
          0.0017860999796540 0.0471160002052784 0.0277880001813173 0.0018803999992087 0.0795210003852844 0.0357370004057884
          0.0018448999617249 0.1194600015878677 0.0429200008511543 0.0017237999709323 0.1661300063133240 0.0493399985134602
          0.0015586999943480 0.2188200056552887 0.0549939982593060 0.0013749999925494 0.2767499983310699 0.0598810017108917
          0.0011751999845728 0.3391599953174591 0.0640290006995201 0.0009905099868774 0.4053499996662140 0.0674799978733063
          0.0008094999939203 0.4746299982070923 0.0702619999647141 0.0006415499956347 0.5463399887084961 0.0724280029535294
          0.0004917500191368 0.6198999881744385 0.0740410014986992 0.0003635300090536 0.6947799921035767 0.0751679986715317
          0.0002579400024842 0.7705299854278564 0.0758929997682571 0.0001658099936321 0.8467900156974792 0.0763280019164085
          0.0001332399988314 0.9233300089836121 0.0765310004353523 0.0001112300014938 0.9999300241470337 0.0765810012817383
          -0.0000062884000727 1.0000000000000000 0.0000044333000915 0.0000000000000000 0.0000000000000000 0.0000000000000000
          -0.0009273199830204 0.0076787001453340 -0.0096121001988649 -0.0014644999755546 0.0227150004357100 -0.0191469993442297
          -0.0017864999826998 0.0471160002052784 -0.0277880001813173 -0.0018811000045389 0.0795210003852844 -0.0357370004057884
          -0.0018456999678165 0.1194600015878677 -0.0429209992289543 -0.0017244999762625 0.1661300063133240 -0.0493410006165504
          -0.0015599000034854 0.2188200056552887 -0.0549950003623962 -0.0013771000085399 0.2767499983310699 -0.0598829984664917
          -0.0011786000104621 0.3391599953174591 -0.0640309974551201 -0.0009948400547728 0.4053499996662140 -0.0674830004572868
          -0.0008147499756888 0.4746299982070923 -0.0702639967203140 -0.0006492899847217 0.5463399887084961 -0.0724290013313293
          -0.0005019900272600 0.6198999881744385 -0.0740400031208992 -0.0003751899930649 0.6947900056838989 -0.0751660019159317
          -0.0002697700110730 0.7705299854278564 -0.0758910030126572 -0.0001763799955370 0.8467900156974792 -0.0763240009546280
          -0.0001415300066583 0.9233300089836121 -0.0765239968895912 -0.0001228600012837 0.9999300241470337 -0.0765750035643578
          0.0000000000000000 0.0000000000000000 0.0000000000000000 0.0000000000000000 0.0000000000000000 0.0000000000000000
          -0.0000002383000037 0.0079586002975702 0.0097944000735879 -0.0000008369000284 0.0232960004359484 0.0193639993667603
          -0.0000003024399859 0.0479290001094341 0.0278740003705025 -0.0000036144999740 0.0804160013794899 0.0357489995658398
          -0.0000047738999456 0.1203500032424927 0.0428810007870197 -0.0000034284000776 0.1669799983501434 0.0492729991674423
          -0.0000064071000452 0.2195899933576584 0.0549129992723465 -0.0000140519996421 0.2774200141429901 0.0597900003194809
          -0.0000132380000650 0.3397400081157684 0.0639439970254898 -0.0000187519999599 0.4058400094509125 0.0674000009894371
          -0.0000252900008491 0.4750300049781799 0.0701790004968643 -0.0000322099986079 0.5466600060462952 0.0723550021648407
          -0.0000339459984389 0.6201400160789490 0.0739789977669716 -0.0000363930012099 0.6949599981307983 0.0751190036535263
          -0.0000368219989468 0.7706500291824341 0.0758410021662712 -0.0000338680001732 0.8468599915504456 0.0762789994478226
          -0.0000218709992623 0.9233800172805786 0.0765110030770302 -0.0000191489998542 0.9999899864196777 0.0766009986400604
          -0.0000074143999882 0.9999600052833557 0.0000000055131002 0.0000000000000000 0.0000000000000000 0.0000000000000000
          0.0000002050300054 0.0079586002975702 -0.0097944000735879 0.0000007150799775 0.0232960004359484 -0.0193639993667603
          0.0000000066501000 0.0479290001094341 -0.0278740003705025 0.0000031495999337 0.0804160013794899 -0.0357489995658398
          0.0000042073997975 0.1203500032424927 -0.0428819991648197 0.0000026873999559 0.1669799983501434 -0.0492740012705326
          0.0000051320998864 0.2195899933576584 -0.0549140013754368 0.0000115670000014 0.2774200141429901 -0.0597920008003712
          0.0000089646000561 0.3397400081157684 -0.0639460012316704 0.0000122860001284 0.4058400094509125 -0.0674019977450371
          0.0000160870004038 0.4750300049781799 -0.0701809972524643 0.0000198920006369 0.5466600060462952 -0.0723560005426407
          0.0000187160003406 0.6201400160789490 -0.0739789977669716 0.0000194380008907 0.6949599981307983 -0.0751160010695457
          0.0000199909991352 0.7706500291824341 -0.0758370012044907 0.0000182830008271 0.8468599915504456 -0.0762730017304420
          0.0000079372002801 0.9233899712562561 -0.0765009969472885 0.0000051954998526 0.9999799728393555 -0.0765689983963966
          0.0000000000000000 0.0000000000000000 0.0000000000000000 0.0000000000000000 0.0000000000000000 0.0000000000000000
          -0.0009275000193156 0.0076776999048889 0.0096115004271269 -0.0014647999778390 0.0227140001952648 0.0191469993442297
          -0.0017878999933600 0.0471139997243881 0.0277859997004271 -0.0018828000174835 0.0795120000839233 0.0357320010662079
          -0.0018493999959901 0.1194500029087067 0.0429220013320446 -0.0017288000090048 0.1661300063133240 0.0493399985134602
          -0.0015696999616921 0.2187999933958054 0.0549850016832352 -0.0013864999637008 0.2767199873924255 0.0598759986460209
          -0.0012003999436274 0.3391300141811371 0.0640269964933395 -0.0010163000551984 0.4053199887275696 0.0674709975719452
          -0.0008571100188419 0.4745700061321259 0.0702510029077530 -0.0007015899755061 0.5462599992752075 0.0724230036139488
          -0.0005578499985859 0.6198300123214722 0.0740400031208992 -0.0004158299998380 0.6947299838066101 0.0751660019159317
          -0.0003320199903101 0.7704499959945679 0.0758939981460571 -0.0002362899977015 0.8467100262641907 0.0763449966907501
          -0.0001806100044632 0.9232800006866455 0.0765440016984940 -0.0001686100004008 0.9998999834060669 0.0765770003199577
          -0.0000071261001722 1.0000000000000000 0.0000038940002014 0.0000000000000000 0.0000000000000000 0.0000000000000000
          0.0009274900075980 0.0076776999048889 -0.0096115004271269 0.0014646999770775 0.0227140001952648 -0.0191469993442297
          0.0017876999918371 0.0471139997243881 -0.0277859997004271 0.0018824000144377 0.0795120000839233 -0.0357329994440079
          0.0018487999914214 0.1194500029087067 -0.0429220013320446 0.0017281000036746 0.1661300063133240 -0.0493399985134602
          0.0015683999517933 0.2187999933958054 -0.0549860000610352 0.0013836000580341 0.2767199873924255 -0.0598779991269112
          0.0011952000204474 0.3391300141811371 -0.0640280023217201 0.0010073999874294 0.4053199887275696 -0.0674730017781258
          0.0008442400139757 0.4745700061321259 -0.0702520012855530 0.0006842099828646 0.5462599992752075 -0.0724230036139488
          0.0005370500148274 0.6198300123214722 -0.0740389972925186 0.0003935999993701 0.6947299838066101 -0.0751629993319511
          0.0003103099879809 0.7704499959945679 -0.0758899971842766 0.0002155099937227 0.8467100262641907 -0.0763399973511696
          0.0001610500039533 0.9232800006866455 -0.0765359997749329 0.0001531799935037 0.9998999834060669 -0.0765670016407967
          0.0000000000000000 0.0000000000000000 0.0000000000000000 0.0000000000000000 0.0000000000000000 0.0000000000000000
          -0.0023280999157578 0.0065410998649895 0.0088900001719594 -0.0035021998919547 0.0206189993768930 0.0187219996005297
          -0.0038900000508875 0.0444660000503063 0.0275929998606443 -0.0039587002247572 0.0766920000314713 0.0357250012457371
          -0.0038058001082391 0.1166699975728989 0.0430280007421970 -0.0035234999377280 0.1635300070047379 0.0495169982314110
          -0.0031604000832886 0.2164600044488907 0.0552019998431206 -0.0027650999836624 0.2746500074863434 0.0600970014929771
          -0.0023833001032472 0.3373500108718872 0.0642490014433861 -0.0020059000235051 0.4038000106811523 0.0676829963922501
          -0.0016380000161007 0.4733200073242188 0.0704440027475357 -0.0012833999935538 0.5452499985694885 0.0726019963622093
          -0.0010161000536755 0.6190400123596191 0.0742110013961792 -0.0007715499959886 0.6941099762916565 0.0753019973635674
          -0.0005469599855132 0.7699999809265137 0.0759920030832291 -0.0003557600139175 0.8464000225067139 0.0764029994606972
          -0.0003065800119657 0.9230200052261353 0.0765660032629967 -0.0002592400123831 0.9996600151062012 0.0766170024871826
          -0.0000091940000857 0.9996100068092346 0.0000013351000234 0.0000000000000000 0.0000000000000000 0.0000000000000000
          0.0023280999157578 0.0065410002134740 -0.0088900001719594 0.0035021998919547 0.0206189993768930 -0.0187219996005297
          0.0038898999337107 0.0444660000503063 -0.0275929998606443 0.0039583998732269 0.0766920000314713 -0.0357250012457371
          0.0038040000945330 0.1166699975728989 -0.0430280007421970 0.0035228999331594 0.1635300070047379 -0.0495159998536110
          0.0031586999539286 0.2164600044488907 -0.0552019998431206 0.0027628000825644 0.2746500074863434 -0.0600970014929771
          0.0023701998870820 0.3373500108718872 -0.0642480030655861 0.0019976999610662 0.4038000106811523 -0.0676819980144501
          0.0016132999444380 0.4733200073242188 -0.0704410001635551 0.0012664999812841 0.5452499985694885 -0.0725999996066093
          0.0009740800014697 0.6190400123596191 -0.0742089971899986 0.0007501199725084 0.6941099762916565 -0.0752990022301674
          0.0005087400204502 0.7699999809265137 -0.0759899988770485 0.0003365500015207 0.8464000225067139 -0.0763999968767166
          0.0002600100124255 0.9230200052261353 -0.0765630006790161 0.0002483499993104 0.9996600151062012 -0.0766130015254021
          0.0000000000000000 0.0000000000000000 0.0000000000000000 0.0000000000000000 0.0000000000000000 0.0000000000000000
          -0.0000000191090006 0.0012709000147879 0.0000000391329991 -0.0050082001835108 0.0033772999886423 0.0092879002913833
          -0.0000000436210001 0.0148419998586178 0.0000000921089978 -0.0060462998226285 0.0161000005900860 0.0186999998986721
          -0.0000000756369971 0.0380849987268448 0.0000001698499972 -0.0063768997788429 0.0394660010933876 0.0275100003927946
          -0.0000002274399975 0.0704760029911995 0.0000002785000106 -0.0062532997690141 0.0716560035943985 0.0356549993157387
          -0.0000004637699931 0.1107899993658066 0.0000003769899877 -0.0058854999952018 0.1118599995970726 0.0429640002548695
          -0.0000004794200095 0.1581500023603439 0.0000005116500006 -0.0053794002160430 0.1590899974107742 0.0494600012898445
          -0.0000007552999932 0.2116699963808060 0.0000011902000097 -0.0047797001898289 0.2125000059604645 0.0551539994776249
          -0.0000018306999436 0.2705299854278564 0.0000017190000108 -0.0041693998500705 0.2712000012397766 0.0600499995052814
          -0.0000033660001009 0.3337900042533875 0.0000024727999062 -0.0035544000566006 0.3343800008296967 0.0641940012574196
          -0.0000055794998843 0.4008100032806396 0.0000031310999020 -0.0029909000732005 0.4013099968433380 0.0676380023360252
          -0.0000084087996584 0.4708999991416931 0.0000034019999475 -0.0023988999892026 0.4713099896907806 0.0704289972782135
          -0.0000111460003609 0.5435299873352051 0.0000030805999813 -0.0018726000562310 0.5436900258064270 0.0725679993629456
          -0.0000132870000016 0.6175799965858459 0.0000021998000648 -0.0014402000233531 0.6178200244903564 0.0741500034928322
          -0.0000136449998536 0.6930099725723267 0.0000015087000520 -0.0011050000321120 0.6931800246238708 0.0752760022878647
          -0.0000135649997901 0.7692599892616272 0.0000007716699884 -0.0007264600135386 0.7693799734115601 0.0760079994797707
          -0.0000122530000226 0.8461199998855591 -0.0000004560799880 -0.0004649999900721 0.8459799885749817 0.0763809978961945
          -0.0000108659996840 0.9226300120353699 -0.0000002754800050 -0.0003336899972055 0.9226899743080139 0.0765549987554550
          -0.0000087797998276 0.9995099902153015 0.0000002475200063 -0.0002884400018957 0.9993500113487244 0.0766109973192215
          0.0000000000000000 0.0000000000000000 0.0000000000000000 0.0050082001835108 0.0033772001042962 -0.0092877997085452
          0.0060462001711130 0.0161000005900860 -0.0186999998986721 0.0063768001273274 0.0394660010933876 -0.0275100003927946
          0.0062528001144528 0.0716560035943985 -0.0356540009379387 0.0058845998719335 0.1118599995970726 -0.0429629981517792
          0.0053783999755979 0.1590899974107742 -0.0494589991867542 0.0047782999463379 0.2125000059604645 -0.0551519989967346
          0.0041657001711428 0.2712000012397766 -0.0600459985435009 0.0035474998876452 0.3343800008296967 -0.0641900002956390
          0.0029792999848723 0.4013099968433380 -0.0676319971680641 0.0023823000956327 0.4713099896907806 -0.0704229995608330
          0.0018501000013202 0.5436900258064270 -0.0725620016455650 0.0014133000513539 0.6178200244903564 -0.0741460025310516
          0.0010772000532597 0.6931800246238708 -0.0752739980816841 0.0006996099837124 0.7693799734115601 -0.0760070011019707
          0.0004390900139697 0.8459900021553040 -0.0763799995183945 0.0003102500049863 0.9226999878883362 -0.0765570029616356
          0.0002706199884415 0.9993500113487244 -0.0766199976205826
        </DataArray>
        <DataArray Name="mode2" NumberOfComponents="3" type="Float32" format="ascii" RangeMin="-0.21198000013828278" RangeMax="1.0">
          0.0000000000000000 0.0000000000000000 0.0000000000000000 0.0000000000000000 0.0000000000000000 0.0000000000000000
          0.0000000000000000 0.0000000000000000 0.0000000000000000 0.0000000000000000 0.0000000000000000 0.0000000000000000
          0.0000000000000000 0.0000000000000000 0.0000000000000000 0.0197369996458292 0.0000021143000595 0.0277629997581244
          0.0182659998536110 0.0100020002573729 0.0295230001211166 0.0101030003279448 0.0066970000043511 0.0157890003174543
          0.0387489981949329 0.0000047735002227 0.0556060001254082 0.0373059995472431 0.0079044997692108 0.0549289993941784
          0.0312820002436638 0.0054413001053035 0.0333120003342628 0.0665830001235008 -0.0000048036999942 0.0795100033283234
          0.0654750019311905 0.0070874998345971 0.0792099982500076 0.0593440011143684 0.0047606998123229 0.0498070009052753
          0.1018299981951714 -0.0000125890001073 0.1016499996185303 0.1007699966430664 0.0064906999468803 0.1013799980282784
          0.0953169986605644 0.0043560001067817 0.0646549984812737 0.1440300047397614 -0.0000346320011886 0.1216399967670441
          0.1431300044059753 0.0058136000297964 0.1211099997162819 0.1384000033140182 0.0038592000491917 0.0779159963130951
          0.1923300027847290 0.0000343370011251 0.1390900015830994 0.1914899945259094 0.0050865001976490 0.1387799978256226
          0.1871600002050400 0.0034239999949932 0.0898030027747154 0.2460699975490570 0.0000849740026752 0.1544499993324280
          0.2452500015497208 0.0046292999759316 0.1542000025510788 0.2413900047540665 0.0029798001050949 0.1000799983739853
          0.3042899966239929 0.0001112099998863 0.1676599979400635 0.3035599887371063 0.0040826997719705 0.1674900054931641
          0.3001900017261505 0.0025345999747515 0.1091300025582314 0.3664399981498718 0.0001537500065751 0.1791100054979324
          0.3657400012016296 0.0034189999569207 0.1788399964570999 0.3630500137805939 0.0022360999137163 0.1167600005865097
          0.4319599866867065 0.0002057100064121 0.1886900067329407 0.4313299953937531 0.0030376000795513 0.1881799995899200
          0.4288499951362610 0.0017792000435293 0.1230299994349480 0.5000399947166443 0.0002325200039195 0.1959500014781952
          0.4994499981403351 0.0024935000110418 0.1957200020551682 0.4973500072956085 0.0013866999652237 0.1283300071954727
          0.5698000192642212 0.0002284700021846 0.2016099989414215 0.5692899823188782 0.0020570999477059 0.2014500051736832
          0.5675699710845947 0.0010583000257611 0.1323399990797043 0.6408500075340271 0.0001213099967572 0.2059299945831299
          0.6404399871826172 0.0016274000518024 0.2057200074195862 0.6390100121498108 0.0007317300187424 0.1355099976062775
          0.7126200199127197 0.0000211170008697 0.2087900042533875 0.7124300003051758 0.0008301199995913 0.2086700052022934
          0.7111499905586243 0.0005211100215092 0.1377200037240982 0.7846900224685669 0.0000644280007691 0.2106000036001205
          0.7844099998474121 0.0009641500073485 0.2105299979448318 0.7834799885749817 0.0002667199878488 0.1393299996852875
          0.8566499948501587 0.0001325899938820 0.2115900069475174 0.8563699722290039 0.0008037699735723 0.2114499956369400
          0.8556299805641174 0.0001451099960832 0.1402399986982346 0.9281399846076965 0.0001532400056021 0.2118500024080276
          0.9280499815940857 0.0001871300046332 0.2118200063705444 0.9272999763488770 0.0000856199985719 0.1407700031995773
          0.9993299841880798 0.0001729299983708 0.2119800001382828 0.9990400075912476 0.0007415299769491 0.2119999974966049
          0.9983299970626831 -0.0000366089989257 0.1410100013017654 1.0000000000000000 0.0001385899959132 0.1409700065851212
          0.0000000000000000 0.0000000000000000 0.0000000000000000 0.0000000000000000 0.0000000000000000 0.0000000000000000
          0.0182659998536110 -0.0099970996379852 0.0295199993997812 0.0101020000874996 -0.0066912998445332 0.0157849993556738
          0.0373019985854626 -0.0078967995941639 0.0549240000545979 0.0312890000641346 -0.0054285000078380 0.0333070009946823
          0.0654620006680489 -0.0070858998224139 0.0791990011930466 0.0593289993703365 -0.0047403997741640 0.0498039983212948
          0.1006800010800362 -0.0065302001312375 0.1013199985027313 0.0953039973974228 -0.0043330001644790 0.0646530017256737
          0.1430100053548813 -0.0057481001131237 0.1210900023579597 0.1380899995565414 -0.0038389000110328 0.0778919979929924
          0.1914499998092651 -0.0050523998215795 0.1387799978256226 0.1871799975633621 -0.0033557999413460 0.0897580012679100
          0.2453400045633316 -0.0043726000003517 0.1541700065135956 0.2414299994707108 -0.0028856000863016 0.1000500023365021
          0.3036400079727173 -0.0038783000782132 0.1674499958753586 0.3002600073814392 -0.0023990999907255 0.1090999990701675
          0.3658699989318848 -0.0031560000497848 0.1788000017404556 0.3631500005722046 -0.0020639998838305 0.1167199984192848
          0.4315600097179413 -0.0024830000475049 0.1881400048732758 0.4289799928665161 -0.0015917000127956 0.1230100020766258
          0.4996500015258789 -0.0021339000668377 0.1957100033760071 0.4975000023841858 -0.0011467000003904 0.1283199936151505
          0.5695300102233887 -0.0014137000543997 0.2014700025320053 0.5677000284194946 -0.0008490200270899 0.1323499977588654
          0.6404799818992615 -0.0013842999469489 0.2057500034570694 0.6390500068664551 -0.0005136199761182 0.1355500072240829
          0.7122600078582764 -0.0010582000249997 0.2086800038814545 0.7111200094223022 -0.0002754800079856 0.1377200037240982
          0.7843400239944458 -0.0007830900140107 0.2105000019073486 0.7834500074386597 -0.0000407170009566 0.1392900049686432
          0.8563799858093262 -0.0005601900047623 0.2114100009202957 0.8556299805641174 0.0001154400015366 0.1401900053024292
          0.9280899763107300 0.0001341299939668 0.2117999941110611 0.9273399710655212 0.0001828700042097 0.1407400071620941
          0.9991000294685364 -0.0003969699901063 0.2119899988174438 0.9983999729156494 0.0003163400106132 0.1409900039434433
          0.0000000000000000 0.0000000000000000 0.0000000000000000 0.0000000000000000 0.0000000000000000 0.0000000000000000
          0.0073922998271883 0.0033964000176638 0.0076139997690916 0.0270750001072884 0.0027509999927133 0.0155539996922016
          0.0557259991765022 0.0024164998903871 0.0239599999040365 0.0920260027050972 0.0021826999727637 0.0314150005578995
          0.1352799981832504 0.0019172000465915 0.0381230004131794 0.1845699995756149 0.0017193000530824 0.0440779998898506
          0.2392400056123734 0.0014315999578685 0.0492560006678104 0.2984099984169006 0.0011934000067413 0.0537649989128113
          0.3613800108432770 0.0010786999482661 0.0575730018317699 0.4276300072669983 0.0007430500118062 0.0607540011405945
          0.4963299930095673 0.0005082099814899 0.0634279996156693 0.5667600035667419 0.0003142599889543 0.0655779987573624
          0.6383900046348572 0.0001500000071246 0.0672599971294403 0.7106900215148926 0.0000119120004456 0.0685150027275085
          0.7832199931144714 -0.0000791190032032 0.0694060027599335 0.8555499911308289 -0.0001450300042052 0.0699720010161400
          0.9273599982261658 -0.0001951599988388 0.0702920034527779 0.9983199834823608 -0.0002669999958016 0.0704400017857552
          0.9983100295066833 0.0001084100003936 0.0706180036067963 0.0000000000000000 0.0000000000000000 0.0000000000000000
          0.0073935999535024 -0.0033905999734998 0.0076100002042949 0.0270760003477335 -0.0027344999834895 0.0155469998717308
          0.0557279996573925 -0.0023849999997765 0.0239579994231462 0.0919990018010139 -0.0021434999071062 0.0314339995384216
          0.1352300047874451 -0.0018667000113055 0.0381079986691475 0.1845600008964539 -0.0016436999430880 0.0440290011465549
          0.2392600029706955 -0.0013409999664873 0.0492350012063980 0.2984600067138672 -0.0010980999795720 0.0537459999322891
          0.3614400029182434 -0.0009548200177960 0.0575499981641769 0.4277299940586090 -0.0006060500163585 0.0607479996979237
          0.4964399933815002 -0.0003737699880730 0.0634270012378693 0.5668699741363525 -0.0001585599966347 0.0655810013413429
          0.6384900212287903 0.0000280439999187 0.0672570019960403 0.7107800245285034 0.0001899299968500 0.0684980005025864
          0.7832900285720825 0.0003254500043113 0.0693719983100891 0.8555999994277954 0.0004255500098225 0.0699459984898567
          0.9273999929428101 0.0004733699897770 0.0702560022473335 0.9983800053596497 0.0005836500204168 0.0703599974513054
          0.0000000000000000 0.0000000000000000 0.0000000000000000 0.0000000000000000 0.0000000000000000 0.0000000000000000
          0.0066937999799848 0.0000059758999669 0.0000108329995783 0.0258639995008707 0.0000104840000859 0.0000196100008907
          0.0544379986822605 0.0000178659993253 0.0000158160000865 0.0909290015697479 0.0000279849991784 0.0000105629997051
          0.1342400014400482 0.0000359719997505 0.0000024057999326 0.1836600005626678 0.0000456839989056 -0.0000021795999601
          0.2384199947118759 0.0000504710005771 -0.0000153330001922 0.2977100014686584 0.0000646010012133 -0.0000431879998359
          0.3607999980449677 0.0000487840006826 -0.0001151899996330 0.4269799888134003 0.0000404790007451 -0.0001646199962124