<?xml version="1.0"?>
<VTKFile type="PolyData" version="1.0" byte_order="LittleEndian" header_type="UInt64">
  <PolyData>
    <Piece NumberOfPoints="20" NumberOfVerts="20" NumberOfLines="0" NumberOfStrips="0" NumberOfPolys="0">
      <FieldData>
        <DataArray Name="TimeValue" NumberOfTuples="1" type="Float64" format="ascii" RangeMin="0.122654987" RangeMax="0.122654987">
          0.1226549870000000
        </DataArray>
      </FieldData>
      <PointData Vectors="1_temp">
        <DataArray Name="1_temp" NumberOfComponents="1" type="Float64" format="ascii" RangeMin="0.0119215535827562" RangeMax="0.9490145030363609">
          0.4204270035661765 0.9490145030363609 0.7864711816566549 0.4815468959885630 0.0119215535827562 0.0597207807092479
          0.8257177483439162 0.4046369872739349 0.0531531123171690 0.2596390482071086 0.2811506610562717 0.9433030410624577
          0.8936293596271191 0.2022892694899581 0.1003608087345019 0.5730430655359530 0.7453773741488717 0.6007604785160442
          0.9092395428890321 0.9385777624120453
        </DataArray>
        <DataArray Name="2_pressure" NumberOfComponents="1" type="Float64" format="ascii" RangeMin="0.112323808840683" RangeMax="0.9986326035811655">
          0.5890720970505128 0.3268986086578718 0.1448144482177102 0.2576384903723663 0.8574458883976873 0.6839737520406283
          0.9986326035811655 0.3194556656082242 0.4534082266242594 0.8676221777748950 0.6385221808378060 0.3318923019829476
          0.5419776327479333 0.1123238088406830 0.8165234436255825 0.2209316463478144 0.5149742681090496 0.5260877679247680
          0.2770886884732112 0.9044206316605501
        </DataArray>
        <DataArray Name="3_force" NumberOfComponents="3" type="Float64" format="ascii" RangeMin="0.0144745384478043" RangeMax="0.9983199556809254">
          0.5615661006777212 0.8908316333576722 0.3124782869770458 0.7710535361311034 0.2136507101264129 0.2883443963127228
          0.2734427951922838 0.2485007122242413 0.0144745384478043 0.6091129763543156 0.8618458103278591 0.2591405994003485
          0.8668647914278148 0.4265298541907321 0.1603909008190777 0.0565316315409430 0.4228071934122273 0.7359960547933326
          0.4769537916279307 0.7006992708984805 0.9261806156102312 0.4526842850674920 0.3917947827194505 0.3592419246788816
          0.9207452697946850 0.0278180708490150 0.2349904981777623 0.0795443510228309 0.5657883468686661 0.2948885661324933
          0.7193769267541885 0.0988020129816635 0.0268196366997491 0.7018310907399513 0.7914683737300843 0.3782688291338249
          0.2473226108228560 0.2627823218786545 0.4984137186921088 0.3041873590603215 0.7186392108467865 0.6106608253770643
          0.0646729072148587 0.1480143523868742 0.9702434112898988 0.4715222037958284 0.7331722522876482 0.2106973939969884
          0.6426786141941642 0.9115921673564267 0.0345287813667512 0.1773567248506672 0.2962514934470256 0.3126333475071587
          0.3249249442272334 0.5780774130897147 0.9983199556809254 0.3547831120917448 0.0207988496596299 0.0996248310145578
        </DataArray>
      </PointData>
      <Points>
        <DataArray Name="Points" NumberOfComponents="3" type="Float64" format="ascii" RangeMin="0.036061310002911" RangeMax="0.9770526614339072">
          0.9191090317991818 0.4523130130592968 0.4455559100158843 0.6421955999238554 0.1757747380313244 0.9770526614339072
          0.7537122297291767 0.0493769993144870 0.7293940090533850 0.1393145681027350 0.2924753386949548 0.3122350583311531
          0.0873195479896001 0.0667991310914613 0.8947552392940534 0.7880020580364918 0.7511564859911245 0.7832735951745574
          0.3261509370344888 0.0637715240806562 0.2620003413345412 0.5410678214759677 0.4319083194117714 0.3094831861549427
          0.2402351758680060 0.3641724134430167 0.1294506297724709 0.5454229255759049 0.1519715256925609 0.4221713562335928
          0.4005545036798892 0.5467103397159158 0.9397650349673574 0.7151918872797569 0.4432930376023336 0.3670428731605497
          0.8366799410811948 0.0360613100029110 0.4347749726828846 0.5884811425466829 0.8228931912295053 0.9170935543593193
          0.2961545640333596 0.2732926831299841 0.9472939210005341 0.2810176906539642 0.1689852192728417 0.2547729480887090
          0.7055972446574292 0.6443697547109174 0.7097035779964328 0.4225964301897521 0.1075410788025926 0.0499764048396870
          0.0573159852472062 0.3532450981171027 0.1347439306209732 0.7470273067071216 0.3857036581156064 0.5065059431067037
        </DataArray>
      </Points>
      <Verts>
        <DataArray Name="connectivity" type="Int32" format="ascii" RangeMin="0" RangeMax="19">
          0 1 2 3 4 5 6 7 8 9 10 11 12 13 14 15 16 17 18 19
        </DataArray>
        <DataArray Name="offsets" type="Int32" format="ascii" RangeMin="1" RangeMax="20">
          1 2 3 4 5 6 7 8 9 10 11 12 13 14 15 16 17 18 19 20
        </DataArray>
      </Verts>
      <Lines>
      </Lines>
      <Strips>
      </Strips>
      <Polys>
      </Polys>
    </Piece>
  </PolyData>
