<?xml version="1.0"?>
<VTKFile type="PolyData" version="1.0" byte_order="LittleEndian" header_type="UInt64">
  <PolyData>
    <Piece NumberOfPoints="20" NumberOfVerts="20" NumberOfLines="0" NumberOfStrips="0" NumberOfPolys="0">
      <FieldData>
        <DataArray Name="TimeValue" NumberOfTuples="1" type="Float64" format="ascii" RangeMin="0.122654987" RangeMax="0.122654987">
          0.122654987000000
        </DataArray>
      </FieldData>
      <PointData Scalars="temp">
        <DataArray Name="temp" NumberOfComponents="1" type="Float64" format="ascii" RangeMin="0.11232380884068305" RangeMax="0.9986326035811655">
          0.589072097050513 0.326898608657872 0.144814448217710 0.257638490372366 0.857445888397687 0.683973752040628
          0.998632603581165 0.319455665608224 0.453408226624259 0.867622177774895 0.638522180837806 0.331892301982948
          0.541977632747933 0.112323808840683 0.816523443625582 0.220931646347814 0.514974268109050 0.526087767924768
          0.277088688473211 0.904420631660550
        </DataArray>
        <DataArray Name="2-components" NumberOfComponents="2" type="Float64" format="ascii" RangeMin="0.01192155358275615" RangeMax="0.9490145030363609">
          0.420427003566176 0.949014503036361 0.786471181656655 0.481546895988563 0.011921553582756 0.059720780709248
          0.825717748343916 0.404636987273935 0.053153112317169 0.259639048207109 0.281150661056272 0.943303041062458
          0.893629359627119 0.202289269489958 0.100360808734502 0.573043065535953 0.745377374148872 0.600760478516044
          0.909239542889032 0.938577762412045 0.561566100677721 0.890831633357672 0.312478286977046 0.771053536131103
          0.213650710126413 0.288344396312723 0.273442795192284 0.248500712224241 0.014474538447804 0.609112976354316
          0.861845810327859 0.259140599400349 0.866864791427815 0.426529854190732 0.160390900819078 0.056531631540943
          0.422807193412227 0.735996054793333 0.476953791627931 0.700699270898480
        </DataArray>
        <DataArray Name="3-components" NumberOfComponents="3" type="Float64" format="ascii" RangeMin="0.02079884965962986" RangeMax="0.9983199556809254">
          0.926180615610231 0.452684285067492 0.391794782719450 0.359241924678882 0.920745269794685 0.027818070849015
          0.234990498177762 0.079544351022831 0.565788346868666 0.294888566132493 0.719376926754189 0.098802012981663
          0.026819636699749 0.701831090739951 0.791468373730084 0.378268829133825 0.247322610822856 0.262782321878654
          0.498413718692109 0.304187359060321 0.718639210846787 0.610660825377064 0.064672907214859 0.148014352386874
          0.970243411289899 0.471522203795828 0.733172252287648 0.210697393996988 0.642678614194164 0.911592167356427
          0.034528781366751 0.177356724850667 0.296251493447026 0.312633347507159 0.324924944227233 0.578077413089715
          0.998319955680925 0.354783112091745 0.020798849659630 0.099624831014558 0.391619643994440 0.604674691941886
          0.879292489460854 0.142608696063202 0.354431734671152 0.549898963762735 0.837556688771151 0.590174025059054
          0.994767164658806 0.748920639421284 0.030434335412427 0.923453842401014 0.979888899053777 0.337341566370756
          0.653356910046844 0.580591631430179 0.923181407862087 0.828646016308566 0.884158823998176 0.873569735463016
        </DataArray>
        <DataArray Name="4-components" NumberOfComponents="4" type="Float64" format="ascii" RangeMin="0.0014967060919942599" RangeMax="0.9881406358732199">
          0.461404991873636 0.702793086763604 0.960058043035115 0.286775300024243 0.453638412955648 0.231074719962408
          0.561733427502462 0.245422678676583 0.342206920481360 0.228703347075137 0.407256813415068 0.151807374862318
          0.988140635873220 0.455391125917527 0.537367285358173 0.767250798586341 0.926674599944212 0.732263235524651
          0.079927407179309 0.815293000765460 0.560440647345487 0.562555716903337 0.907278985872242 0.239126393142906
          0.917147563419296 0.240752376729243 0.879026707400932 0.548811619320068 0.665981240191654 0.509042659447229
          0.464338270174880 0.849585281372366 0.774441689731909 0.204473526445009 0.485007172762602 0.583947547021073
          0.714390801523025 0.579420650255129 0.008136159216854 0.695557341817589 0.105350919788282 0.963882907254332
          0.173184839269735 0.943240621848324 0.536433326170956 0.919233410912815 0.650825854951446 0.980587806769464
          0.020419173931602 0.486812651133413 0.522118493007781 0.238981346064618 0.716851244511323 0.098142148423931
          0.226486552009125 0.555604477355817 0.001496706091994 0.807102355109537 0.813112456363807 0.229147468798181
          0.248588790251517 0.643973660218886 0.824763247961372 0.802975602756761 0.520248184052355 0.132253164794226
          0.127191444959907 0.957047750260801 0.151224255892061 0.382533098833088 0.699145317520280 0.015593907299812
          0.776945697733919 0.224104970623777 0.036739963493106 0.236412290075111 0.242970048872600 0.436020524512665
          0.566561362257746 0.928805991443935
        </DataArray>
        <DataArray Name="force" NumberOfComponents="3" type="Float64" format="ascii" RangeMin="0.812922847044879" RangeMax="19.77989248384297">
          7.569646267716386 7.880569020610011 2.122627616630712 5.630437635570669 16.253716451817613 3.000702984671946
          3.489631601222596 10.405151662409155 18.760640959322458 13.357153209784125 9.208189437747974 15.671107435192177
          7.149431964439752 14.876993309998522 11.555957776767565 6.224311489313694 13.669839305038137 5.139861856803545
          0.847828938124122 15.574430879387659 13.755461232658226 3.840616956392231 17.916560969222626 0.812922847044879
          13.160855490102545 18.440482073617627 4.317115258325794 8.335967575163121 2.863259325296867 15.529589524980851
          17.929511539330690 6.602659531096053 2.349259237824568 1.597574904874741 9.263741747710931 6.883380402601147
          16.092279094667472 16.749925336572588 12.493515911460715 5.856679573040444 19.779892483842971 13.102226305891628
          13.408972209900959 9.690605541118568 15.437844251266256 14.402007568282151 6.113048976611419 11.374424530643306
          12.071348681943736 19.511602635589586 8.656203746552807 6.966633007037542 3.134933175836552 4.690894444337745
          6.105671718875154 3.579514083168207 2.176223814263010 0.830698808734729 12.480110372357432 8.170593600686457
        </DataArray>
        <DataArray Name="stress" NumberOfComponents="9" type="Float64" format="ascii" RangeMin="25.484922397537744" RangeMax="991.813296056026">
          83.877965414607132 142.505435680263872 859.183202561521512 951.642646878762662 253.154464019969652 237.206359299183532
          25.484922397537744 68.971677855007130 136.231428886614651 239.187076641408936 464.112127349480829 296.293157900867641
          482.857452878048264 298.990081534019055 752.855365340635331 148.713950494572487 843.419856974404411 542.380151073211891
          266.322488375635658 166.105459235679973 545.271503453016976 540.477265500957401 425.697781561170984 984.944162232274721
          192.247844255722384 302.940246512123906 252.740790660798808 241.493587168508327 213.836449732825116 158.813730542681895
          881.080450353973220 266.982965689470348 269.230906516884545 375.379691905603295 171.946626322564185 989.577496704810528
          247.035387314046176 899.053020980338715 167.372073131906063 600.217874517619748 380.927055923724083 321.043976906057139
          143.256006741014914 965.166153322957143 147.775056778030716 684.791107678509889 868.107867516121814 288.019165619151522
          58.845465959905916 123.047557346677166 276.971843344819831 179.671953126062107 153.132162768773952 58.876210432274199
          859.744863290153376 599.167458619207878 643.908661909371858 58.438590614557803 445.113024335623834 600.099919004304752
          824.191018120499621 510.986956028332315 102.785259907863917 251.893471252798491 664.653986484013672 104.599501733869886
          576.627710949081006 817.089733351074415 552.993472482780021 714.236934846284839 966.407282574347164 962.922545601185448
          160.568137724744332 910.810419077029678 634.979860677548231 568.486859038740022 430.320944705583770 388.927001016226484
          277.272858125054427 296.510803384999804 887.414192426876298 160.981080608867956 502.328635131391934 687.640576923325398
          581.132917380050344 870.724597552714954 379.241924462661814 502.337147286322192 52.103745387166114 102.923054393160513
          305.067695895790280 281.930649054899732 973.664838965823265 743.081806021486614 533.014277651159091 474.012348145579267
          196.857000913566850 367.685993212831931 555.567907798238366 974.519646790390880 328.219995288518533 163.673726192625338
          659.298905386032516 796.414974084181949 957.949504787295041 659.213163214518772 895.849346115896537 92.475620484895103
          344.164182413357992 512.246349125795859 311.629789211014668 815.634707183871456 95.898066527056784 752.764696737084478
          940.810648750266751 255.175751994527019 251.561781715130110 555.311978709825780 728.649410548040805 772.462066338711452
          571.220257803048526 230.719599630756932 350.856345035477830 45.169798730462006 482.807509306222528 121.717930107004150
          420.178270813929885 133.815889004142974 963.545273954164259 645.174672926946073 143.530182473794895 411.108047483226244
          257.608377469439972 115.643190642374051 539.345975459227247 458.771715244094992 879.783890769862069 694.365253148265083
          426.476242283832278 625.970138423307162 678.336808735900604 585.584853647607929 441.346321764951597 743.812256750600682
          201.570069575596762 672.796609771832323 215.748630385540054 249.033545795634410 991.813296056026047 539.651314558486661
          727.184632390886350 708.074967877073163 777.575788827839574 529.848557053335526 871.443735649729092 111.250265528404228
          347.961118032369200 48.885861819542356 454.112099411366671 233.319310963363108 396.827791949682421 694.947032497345390
          119.567311596824766 80.966542356479039 885.956575537949675 685.657102226200095 231.072895349172512 141.598678467273032
          689.861582357722682 160.692134134870940 966.333597814293057 757.331358804844172 792.552147966912685 667.657546111529996
          156.961037562981517 212.374798869397154 679.542530268816904 280.126648089977778 485.222050601000774 851.429536817079565
        </DataArray>
        <DataArray Name="normals" NumberOfComponents="3" type="Float64" format="ascii" RangeMin="0.014967608290058375" RangeMax="0.9608559678824963">
          0.553879412486996 0.624159955503275 0.551037155162163 0.888536425242076 0.347613287479866 0.299446194474854
          0.397051742501536 0.840931685523436 0.367673515580340 0.259466426792531 0.540428779734016 0.800383600158523
          0.563390472276377 0.059826677182730 0.824021810661268 0.770567209257330 0.031031001646874 0.636602900522895
          0.920929491502000 0.268167543047726 0.282798586519831 0.586234738855006 0.139175079154755 0.798097192265372
          0.482162994937940 0.685717888291605 0.545261243799133 0.392982156737978 0.844769323944715 0.363221439080289
          0.603437578962482 0.797269752968200 0.014967608290058 0.478720108516979 0.150426411531471 0.864984943461594
          0.178959592119406 0.801405180682370 0.570721649110942 0.916309242576276 0.046680903374346 0.397741455256360
          0.235309238858154 0.835429054950142 0.496676812679139 0.929210359892140 0.361693032389823 0.075804072382525
          0.467587020749749 0.414462601598178 0.780758048247243 0.797334084004522 0.560468454489978 0.223905046853093
          0.960855967882496 0.211036722201048 0.179497384012216 0.369416121184606 0.649296058948783 0.664790461154866
        </DataArray>
      </PointData>
      <CellData>
        <DataArray Name="pressure" NumberOfComponents="1" type="Int64" format="ascii" RangeMin="0" RangeMax="19">
          0 1 2 3 4 5 6 7 8 9 10 11 12 13 14 15 16 17 18 19
        </DataArray>
      </CellData>
      <Points>
        <DataArray Name="Points" NumberOfComponents="3" type="Float64" format="ascii" RangeMin="0.03606131000291102" RangeMax="0.9770526614339072">
          0.919109031799182 0.642195599923855 0.753712229729177 0.139314568102735 0.087319547989600 0.788002058036492
          0.326150937034489 0.541067821475968 0.240235175868006 0.545422925575905 0.400554503679889 0.715191887279757
          0.836679941081195 0.588481142546683 0.296154564033360 0.281017690653964 0.705597244657429 0.422596430189752
          0.057315985247206 0.747027306707122 0.452313013059297 0.175774738031324 0.049376999314487 0.292475338694955
          0.066799131091461 0.751156485991125 0.063771524080656 0.431908319411771 0.364172413443017 0.151971525692561
          0.546710339715916 0.443293037602334 0.036061310002911 0.822893191229505 0.273292683129984 0.168985219272842
          0.644369754710917 0.107541078802593 0.353245098117103 0.385703658115606 0.445555910015884 0.977052661433907
          0.729394009053385 0.312235058331153 0.894755239294053 0.783273595174557 0.262000341334541 0.309483186154943
          0.129450629772471 0.422171356233593 0.939765034967357 0.367042873160550 0.434774972682885 0.917093554359319
          0.947293921000534 0.254772948088709 0.709703577996433 0.049976404839687 0.134743930620973 0.506505943106704
        </DataArray>
      </Points>
      <Verts>
        <DataArray Name="connectivity" type="Int32" format="ascii" RangeMin="0" RangeMax="19">
          0 1 2 3 4 5 6 7 8 9 10 11 12 13 14 15 16 17 18 19
        </DataArray>
        <DataArray Name="offsets" type="Int32" format="ascii" RangeMin="1" RangeMax="20">
          1 2 3 4 5 6 7 8 9 10 11 12 13 14 15 16 17 18 19 20
        </DataArray>
      </Verts>
      <Lines>
      </Lines>
      <Strips>
      </Strips>
      <Polys>
      </Polys>
    </Piece>
  </PolyData>
