<?xml version="1.0"?>
<VTKFile type="ImageData" version="1.0" byte_order="LittleEndian" header_type="UInt64">
  <ImageData WholeExtent="0 6 0 6 0 2" Origin="0.7312 0.7312 0.7312" Spacing="0.45 0.45 0.45" Direction="1 0 0 0 1 0 0 0 1">
    <Piece Extent="0 6 0 6 0 2">
    <FieldData>
        <DataArray Name="TimeValue" NumberOfTuples="1" type="Float64" format="ascii" RangeMin="0.122654987" RangeMax="0.122654987">
          0.1226549870000000
        </DataArray>
    </FieldData>
    <PointData Scalars="temp" Vectors="force" Tensors="stress" Normals="normals">
        <DataArray Name="temp" NumberOfComponents="1" type="Float64" format="ascii" RangeMin="0.01192155358275615" RangeMax="0.9986326035811655">
          0.9191090317991818 0.6421955999238554 0.7537122297291767 0.1393145681027350 0.0873195479896001 0.7880020580364918
          0.3261509370344888 0.5410678214759677 0.2402351758680060 0.5454229255759049 0.4005545036798892 0.7151918872797569
          0.8366799410811948 0.5884811425466829 0.2961545640333596 0.2810176906539642 0.7055972446574292 0.4225964301897521
          0.0573159852472062 0.7470273067071216 0.4523130130592968 0.1757747380313244 0.0493769993144870 0.2924753386949548
          0.0667991310914613 0.7511564859911245 0.0637715240806562 0.4319083194117714 0.3641724134430167 0.1519715256925609
          0.5467103397159158 0.4432930376023336 0.0360613100029110 0.8228931912295053 0.2732926831299841 0.1689852192728417
          0.6443697547109174 0.1075410788025926 0.3532450981171027 0.3857036581156064 0.4455559100158843 0.9770526614339072
          0.7293940090533850 0.3122350583311531 0.8947552392940534 0.7832735951745574 0.2620003413345412 0.3094831861549427
          0.1294506297724709 0.4221713562335928 0.9397650349673574 0.3670428731605497 0.4347749726828846 0.9170935543593193
          0.9472939210005341 0.2547729480887090 0.7097035779964328 0.0499764048396870 0.1347439306209732 0.5065059431067037
          0.5890720970505128 0.3268986086578718 0.1448144482177102 0.2576384903723663 0.8574458883976873 0.6839737520406283
          0.9986326035811655 0.3194556656082242 0.4534082266242594 0.8676221777748950 0.6385221808378060 0.3318923019829476
          0.5419776327479333 0.1123238088406830 0.8165234436255825 0.2209316463478144 0.5149742681090496 0.5260877679247680
          0.2770886884732112 0.9044206316605501 0.4204270035661765 0.9490145030363609 0.7864711816566549 0.4815468959885630
          0.0119215535827562 0.0597207807092479 0.8257177483439162 0.4046369872739349 0.0531531123171690 0.2596390482071086
          0.2811506610562717 0.9433030410624577 0.8936293596271191 0.2022892694899581 0.1003608087345019 0.5730430655359530
          0.7453773741488717 0.6007604785160442 0.9092395428890321 0.9385777624120453 0.5615661006777212 0.8908316333576722
          0.3124782869770458 0.7710535361311034 0.2136507101264129 0.2883443963127228 0.2734427951922838 0.2485007122242413
          0.0144745384478043 0.6091129763543156 0.8618458103278591 0.2591405994003485 0.8668647914278148 0.4265298541907321
          0.1603909008190777 0.0565316315409430 0.4228071934122273 0.7359960547933326 0.4769537916279307 0.7006992708984805
          0.9261806156102312 0.4526842850674920 0.3917947827194505 0.3592419246788816 0.9207452697946850 0.0278180708490150
          0.2349904981777623 0.0795443510228309 0.5657883468686661 0.2948885661324933 0.7193769267541885 0.0988020129816635
          0.0268196366997491 0.7018310907399513 0.7914683737300843 0.3782688291338249 0.2473226108228560 0.2627823218786545
          0.4984137186921088 0.3041873590603215 0.7186392108467865 0.6106608253770643 0.0646729072148587 0.1480143523868742
          0.9702434112898988 0.4715222037958284 0.7331722522876482
        </DataArray>
        <DataArray Name="2-components" NumberOfComponents="2" type="Float64" format="ascii" RangeMin="0.0014967060919942599" RangeMax="0.9983199556809254">
          0.2106973939969884 0.6426786141941642 0.9115921673564267 0.0345287813667512 0.1773567248506672 0.2962514934470256
          0.3126333475071587 0.3249249442272334 0.5780774130897147 0.9983199556809254 0.3547831120917448 0.0207988496596299
          0.0996248310145578 0.3916196439944402 0.6046746919418857 0.8792924894608538 0.1426086960632018 0.3544317346711524
          0.5498989637627353 0.8375566887711513 0.5901740250590545 0.9947671646588059 0.7489206394212843 0.0304343354124273
          0.9234538424010137 0.9798888990537769 0.3373415663707561 0.6533569100468444 0.5805916314301794 0.9231814078620875
          0.8286460163085659 0.8841588239981764 0.8735697354630155 0.4614049918736365 0.7027930867636041 0.9600580430351148
          0.2867753000242432 0.4536384129556481 0.2310747199624076 0.5617334275024616 0.2454226786765831 0.3422069204813598
          0.2287033470751366 0.4072568134150685 0.1518073748623180 0.9881406358732199 0.4553911259175266 0.5373672853581730
          0.7672507985863412 0.9266745999442119 0.7322632355246509 0.0799274071793086 0.8152930007654599 0.5604406473454870
          0.5625557169033366 0.9072789858722415 0.2391263931429055 0.9171475634192959 0.2407523767292434 0.8790267074009325
          0.5488116193200679 0.6659812401916544 0.5090426594472293 0.4643382701748804 0.8495852813723658 0.7744416897319085
          0.2044735264450087 0.4850071727626024 0.5839475470210727 0.7143908015230248 0.5794206502551287 0.0081361592168537
          0.6955573418175889 0.1053509197882821 0.9638829072543322 0.1731848392697353 0.9432406218483244 0.5364333261709561
          0.9192334109128145 0.6508258549514463 0.9805878067694643 0.0204191739316022 0.4868126511334131 0.5221184930077812
          0.2389813460646182 0.7168512445113232 0.0981421484239310 0.2264865520091253 0.5556044773558171 0.0014967060919943
          0.8071023551095372 0.8131124563638072 0.2291474687981814 0.2485887902515170 0.6439736602188860 0.8247632479613723
          0.8029756027567611 0.5202481840523545 0.1322531647942260 0.1271914449599068 0.9570477502608012 0.1512242558920613
          0.3825330988330875 0.6991453175202802 0.0155939072998121 0.7769456977339187 0.2241049706237768 0.0367399634931056
          0.2364122900751108 0.2429700488725998 0.4360205245126649 0.5665613622577458 0.9288059914439347 0.3784823133858193
          0.3940284510305005 0.1061313808315356 0.2815218817785334 0.8126858225908807 0.1500351492335973 0.1744815800611298
          0.5202575831204578 0.9380320479661228 0.6678576604892063 0.4604094718873987 0.7835553717596089 0.3574715982219876
          0.7438496654999260 0.5777978888383782 0.3112155744656847 0.6834919652519068 0.2569930928401772 0.0423914469062061
          0.7787215439693830 0.6877730616329113 0.1920308478196115 0.8958280484611313 0.0406461423522440 0.6580427745051273
          0.9220241036808813 0.2158557629162897 0.4167983787581561 0.1431629662648434 0.7764794762490426 0.8964755769665345
          0.3301329765548027 0.1174629618912284 0.0798787452437371 0.4631870873855466 0.3441690201300573 0.8046139547333736
          0.8374962668286293 0.6246757955730358 0.2928339786520222 0.9889946241921486 0.6551113152945814 0.6704486104950480
          0.4845302770559284 0.7718922125633128 0.7201003784141076 0.3056524488305710 0.5687212265321653 0.6035674340971868
          0.9755801317794793 0.4328101873276403 0.3483316503518771 0.1567466587918276 0.2345447222168873 0.3052835859437577
          0.1789757041584104 0.1088111907131505 0.0415349404367364 0.6240055186178716 0.4085296800343229 0.0838779654146071
          0.1425054356802639 0.8591832025615215 0.9516426468787627 0.2531544640199697 0.2372063592991835 0.0254849223975377
          0.0689716778550071 0.1362314288866147 0.2391870766414089 0.4641121273494808 0.2962931579008676 0.4828574528780483
          0.2989900815340191 0.7528553653406354 0.1487139504945725 0.8434198569744044 0.5423801510732119 0.2663224883756357
          0.1661054592356800 0.5452715034530170 0.5404772655009574 0.4256977815611710 0.9849441622322748 0.1922478442557224
          0.3029402465121239 0.2527407906607988 0.2414935871685083 0.2138364497328251 0.1588137305426819 0.8810804503539732
          0.2669829656894703 0.2692309065168845 0.3753796919056033 0.1719466263225642 0.9895774967048105 0.2470353873140462
          0.8990530209803387 0.1673720731319061 0.6002178745176198 0.3809270559237241 0.3210439769060571 0.1432560067410149
          0.9651661533229572 0.1477750567780307 0.6847911076785099 0.8681078675161218 0.2880191656191515 0.0588454659599059
          0.1230475573466772 0.2769718433448198 0.1796719531260621 0.1531321627687739 0.0588762104322742 0.8597448632901534
          0.5991674586192078 0.6439086619093719 0.0584385906145578 0.4451130243356238 0.6000999190043047 0.8241910181204997
          0.5109869560283323 0.1027852599078639 0.2518934712527985 0.6646539864840136 0.1045995017338699 0.5766277109490811
          0.8170897333510744 0.5529934724827800 0.7142369348462848 0.9664072825743472 0.9629225456011854 0.1605681377247443
          0.9108104190770296 0.6349798606775482 0.5684868590387400 0.4303209447055838 0.3889270010162265 0.2772728581250544
          0.2965108033849998 0.8874141924268762 0.1609810806088680 0.5023286351313919 0.6876405769233254 0.5811329173800504
          0.8707245975527149 0.3792419244626618 0.5023371472863222 0.0521037453871661 0.1029230543931605 0.3050676958957903
          0.2819306490548997 0.9736648389658232 0.7430818060214867 0.5330142776511591 0.4740123481455792 0.1968570009135668
          0.3676859932128319 0.5555679077982384 0.9745196467903908 0.3282199952885185 0.1636737261926253 0.6592989053860325
          0.7964149740841819 0.9579495047872950 0.6592131632145187 0.8958493461158965 0.0924756204848951 0.3441641824133580
          0.5122463491257958 0.3116297892110147 0.8156347071838714 0.0958980665270568 0.7527646967370845 0.9408106487502668
          0.2551757519945270 0.2515617817151301 0.5553119787098257 0.7286494105480408 0.7724620663387115 0.5712202578030485
                  </DataArray>
        <DataArray Name="3-components" NumberOfComponents="3" type="Float64" format="ascii" RangeMin="0.0010208312253622287" RangeMax="0.9993545168104067">
          0.2307195996307569 0.3508563450354778 0.0451697987304620 0.4828075093062225 0.1217179301070042 0.4201782708139299
          0.1338158890041430 0.9635452739541642 0.6451746729269461 0.1435301824737949 0.4111080474832263 0.2576083774694400
          0.1156431906423740 0.5393459754592272 0.4587717152440950 0.8797838907698621 0.6943652531482650 0.4264762422838323
          0.6259701384233072 0.6783368087359006 0.5855848536476079 0.4413463217649516 0.7438122567506007 0.2015700695755968
          0.6727966097718323 0.2157486303855400 0.2490335457956344 0.9918132960560261 0.5396513145584867 0.7271846323908864
          0.7080749678770731 0.7775757888278396 0.5298485570533356 0.8714437356497291 0.1112502655284042 0.3479611180323692
          0.0488858618195424 0.4541120994113667 0.2333193109633631 0.3968277919496824 0.6949470324973454 0.1195673115968248
          0.0809665423564790 0.8859565755379497 0.6856571022262001 0.2310728953491725 0.1415986784672730 0.6898615823577227
          0.1606921341348709 0.9663335978142931 0.7573313588048441 0.7925521479669126 0.6676575461115299 0.1569610375629815
          0.2123747988693971 0.6795425302688169 0.2801266480899778 0.4852220506010008 0.8514295368170796 0.7130117948434542
          0.8034842965990345 0.7093529424815532 0.7770313974501188 0.3039902820743910 0.2618678180700630 0.4066818765705809
          0.8613277296850279 0.3765911070921362 0.2109262255055764 0.4393269837373881 0.6506502356583936 0.3265234631081694
          0.0346736673430583 0.4775772195909449 0.9044066934045936 0.0364207628553652 0.7471741820270142 0.6147218355366251
          0.1790022426415987 0.1887684864007376 0.6845784590679940 0.1625223735708933 0.9319818664015619 0.2278311302710371
          0.3240146655316288 0.2576462457135213 0.4604506285278193 0.9898021055208226 0.4255804927825503 0.5291508462294261
          0.6991211339234115 0.0131250072399077 0.4929696261125559 0.1549039836238520 0.8907319675628973 0.1953994988829207
          0.8750252995828711 0.6231503040278736 0.6089230710111955 0.0310212728623844 0.2643146408981070 0.2484426097061434
          0.8820570566770942 0.5243979544590620 0.5885551638083589 0.2290937672619628 0.0480137546503639 0.3639902297295018
          0.3226358535960041 0.6077762827740427 0.6636240214251207 0.4664799073714897 0.1863569745617283 0.7382099240331319
          0.1621360618777863 0.1379049042155798 0.2976148973898980 0.5230962290980808 0.5355790761051202 0.5232633927110754
          0.3560494105104665 0.9243751540367312 0.6175543967037361 0.6431716315977716 0.9681967182176967 0.2132244920543770
          0.6320226124400673 0.4469755558450341 0.4672242211058258 0.3983165366318399 0.3844327849581031 0.7481868168265932
          0.2823305501768082 0.1642422399487951 0.2042679998357511 0.9583212604144772 0.3995133455800379 0.5459642208501608
          0.5980078810702200 0.3697840808569901 0.5774564390907218 0.0188907267964340 0.3913319566374115 0.7520363698888020
          0.6282640504752013 0.2676273113183325 0.2850348633895688 0.4189057900623258 0.3503471398017745 0.3738729779940742
          0.9527908609710527 0.1033057882032156 0.6901719117150532 0.4479244816396298 0.9554385688908371 0.7526201947901212
          0.5781336472337527 0.0978850865991930 0.5135064188216244 0.8000899070397371 0.3959202754895073 0.8492935406266832
          0.7937251451606406 0.4464123414449421 0.9813208346604262 0.7373369419320472 0.6273163708860597 0.6483978444880616
          0.1790937076696563 0.0719047136309544 0.4316761847093894 0.8147514954267142 0.9005040018325876 0.8433916884882821
          0.3754627887077751 0.7568191563377502 0.6620139140721900 0.7351848304472470 0.8813296203627071 0.4451442568583581
          0.8044077586000425 0.9881296506924903 0.8007171139085076 0.1122933754038044 0.1225818159593819 0.8371086843337281
          0.7143849440885646 0.9591649145166879 0.2092711406317759 0.5374244377133548 0.2925351539696085 0.4384385269069316
          0.1940536814971002 0.0827238908345980 0.7820840269081437 0.5888742944562425 0.1859630381347580 0.0622405655244201
          0.8739365092016919 0.4687186569172690 0.5588545132040584 0.0378394211451073 0.2422193745769267 0.3490386367778775
          0.6933862474850077 0.2952924156228479 0.0879634980994813 0.3279634050480208 0.0601338670265295 0.8533894093211698
          0.2487080178434682 0.3710769478710441 0.8782347845861201 0.3783466656688965 0.1166112360801882 0.9901101845862561
          0.5027116964030280 0.4627020356312563 0.4120616483970365 0.5736699127889473 0.9126731480120107 0.7336739003921452
          0.3992498796330022 0.4812826274288743 0.9669339304375286 0.1580401628504364 0.8001938766160284 0.8266861893386148
          0.2739828527691759 0.1508886422362052 0.6744856149151480 0.0527138156853354 0.4504940568909971 0.5385666376349413
          0.7457947207626882 0.5922242368062245 0.2623683792345196 0.8470910367718487 0.8278307676005318 0.7317376938000214
          0.1872340444831171 0.1552552107172562 0.3639980708666333 0.4950482563742492 0.0496616762418570 0.5760479711484756
          0.2685279370791880 0.7728632975228348 0.3113905889553356 0.1685857020553462 0.3356741820383118 0.7890122122989706
          0.3195387799521584 0.5126450211308102 0.2782755329550120 0.4682567948746995 0.0208183862029978 0.0285868626670726
          0.4006207149656305 0.5070546371175896 0.5251035008720317 0.0917050510075382 0.5751657807713135 0.5995756534338390
          0.3734347177265993 0.3058080166025725 0.7114091115989954 0.4484035808735372 0.6092161258290444 0.3510543242421080
          0.1591633183234727 0.2143168852683055 0.2737063913486105 0.3733076469004174 0.6554089827643977 0.4734615157502536
          0.8301302893255217 0.2303390401359008 0.5929254085025851 0.1676632842389342 0.7474109250942221 0.3336272302620839
          0.0103220237097095 0.5389619081968032 0.5221598576513335 0.6146378340835578 0.1222057637465755 0.7067122860920344
          0.5460885123623402 0.7969703178237786 0.3986583407098296 0.0984072556183255 0.6058545025775685 0.9255852384240704
          0.1635510257125538 0.3375904372793096 0.9673248605215103 0.4127432599730957 0.6161143953631395 0.7012437382829652
          0.7976774149994063 0.6413941303188798 0.3677689618858744 0.3418686477830903 0.6912855254086586 0.4905290597083557
          0.7268470151976125 0.2853230793747563 0.0901691845772395 0.6528703933884142 0.9993545168104067 0.4874396293658186
          0.4212702523392217 0.2111358900709007 0.0978343541982857 0.2295313464670893 0.7800370180232973 0.6628431644700030
          0.0236369069400759 0.7761005874330426 0.2674408228940450 0.2884275016865393 0.9889892027464067 0.9144972327232375
          0.1326559500398594 0.7977858828205963 0.5792544380880793 0.1094810743231001 0.6045320041679991 0.7476345849597080
          0.3985388839995314 0.5407068188229355 0.6070772123216759 0.0010208312253622 0.2862929621730980 0.1366837639703210
          0.9970238256312034 0.0755427778230278 0.0547987295395927 0.3451083263976263 0.0594517182353566 0.7064718127430778
          0.9277770974773132 0.0345771841747209 0.8566159534558571 0.3407945457710152 0.4403256955512704 0.6986256494093516
          0.8511867378822612 0.2322172828276953 0.5401340180472524 0.3883719878218147 0.5896287444167421 0.0827641866316455
          0.1758964975020876 0.9442467288841149 0.5984405055813532 0.0153058850329763 0.4488974341215151 0.8476934921216773
          0.2976779883878502 0.5555344139987856 0.4678425650611135 0.9589223335397612 0.6707018372112837 0.9238053679123880
          0.3799495696913897 0.2474732354856052 0.3599837035712170 0.5114803579122723 0.1471773490395593 0.6146602825960759
          0.2443141861279541 0.3906009998517247 0.0149205919557579 0.5291072977929402 0.4586761633480204 0.1944515479646832
          0.8774092014552445 0.9680738754125490 0.3877317711718616 0.1036364490911228 0.5510319749454550 0.7977432955297401
          0.1756845492190215 0.6873266005900069 0.0638169425661527 0.3017065997863499 0.7405759172551262 0.5349868244354462
          0.7534109227763931 0.4822624545223297 0.3872353067076433 0.4796925818195262 0.2872563151214357 0.1753059934417290
          0.1550767746705586 0.7733313678822326 0.8350078375587994 0.9733887963783096 0.7741052487155705 0.6214213730968958
          0.7330206553019076 0.5527974404646830 0.5720387542265856 0.4189214757101666 0.1797945954243279 0.5598540634451057
          0.8235961938031503 0.6075129593765624 0.8829185241789297 0.7724621007855713 0.7932694153879861 0.3959370177104977
          0.1321346928415144 0.9957022707363694 0.7685426750678167 0.1719334355043084 0.5786116554953625 0.3578992394223189
          0.2087049827857473 0.0867848175941277 0.9738092382957999 0.3438004232440458 0.2824673622577308 0.2870075774442319
          0.1607377784375679 0.8768668708831532 0.1244958486220122 0.8573491707866162 0.1888349912938931 0.7685116737854183
          0.4553873222794823 0.8311583211375122 0.6666394321633687 0.0443430075121561 0.2317451464654704 0.2511086550854469
          0.5997892953022738 0.2580011944759319 0.1056152415000738
        </DataArray>
        <DataArray Name="4-components" NumberOfComponents="4" type="Float64" format="ascii" RangeMin="0.0021679325560567397" RangeMax="0.9960764996320337">
          0.8835771520151523 0.7557616651218442 0.3213389193168895 0.8275241819878504 0.1353746771467994 0.5042917772585707
          0.3759956205842707 0.7034740747478586 0.6080430138505351 0.4500949396457234 0.2576851276395377 0.7964624173407814
          0.5560810820406369 0.8892321897259500 0.2319926101087547 0.4802646347532441 0.6647298874362092 0.1052122523817566
          0.6598493266295095 0.2195761621627670 0.8737595445094803 0.6145429757100416 0.9156281741412381 0.2370173593801176
          0.3173940265653620 0.1007042731619506 0.6988072054049057 0.6633938069228656 0.7249879345874023 0.9656076166206068
          0.2275105582124937 0.5580406015699837 0.8957665691828443 0.1975472176705592 0.2844953648451570 0.8548280785700196
          0.5235536689366301 0.3297431860330982 0.4640132788637400 0.3629261462478558 0.9544447034978267 0.5380811139528734
          0.4856163353574064 0.2966615355065241 0.7650321604379152 0.7648871752853855 0.7670897526064692 0.1909092321679240
          0.6395939271109153 0.2971911998494829 0.5701139555876044 0.7775639544858216 0.6950836157538216 0.5175718823378442
          0.5578195817747035 0.6225548536632970 0.7171713554534899 0.9216246419592604 0.6807238492162723 0.5330893826749662
          0.6006531048830143 0.8105302718092130 0.7606692333746795 0.0069757427212835 0.7460982533283740 0.6167475238767310
          0.5967058946461570 0.0285497852108054 0.4808599195139149 0.0426902775389643 0.6630874351467375 0.8044148675981959
          0.0808886305227964 0.3899730854596851 0.6552625957303970 0.2477229624653408 0.1706349843382318 0.6357817293055835
          0.8493809869631977 0.7287949161378314 0.4947790121851635 0.9886439445099069 0.8738850059132843 0.5654918923851298
          0.8706722423325322 0.6069866402701093 0.3490622736945519 0.6089291902525581 0.7966974650533819 0.6181902631506166
          0.7912833499302144 0.1448331796392281 0.4665218319008944 0.2466309700942084 0.6369144936209953 0.4316608827228484
          0.7503716435593518 0.0078192047814943 0.4875266978418982 0.6937034197459518 0.2185601535153547 0.7784148067726568
          0.0634309575899157 0.8411006056284056 0.5702430979617391 0.8147048198664099 0.2459193415366561 0.9172481593875291
          0.4333331869592411 0.8892207762581561 0.3816089750175916 0.6619434317188276 0.0620162079641979 0.2033061797258972
          0.9776382224845614 0.5553505469357450 0.9562803859609762 0.3790511539516196 0.3870793276633746 0.0291138151092121
          0.9761561574059698 0.0898162195275950 0.6451254378270467 0.2295039159038229 0.6216884832158212 0.1046633683707082
          0.7800082984311015 0.2625326604105915 0.2461482624859926 0.4551262560423621 0.1034935927271887 0.4706346767128244
          0.6121409028164838 0.0675718685062875 0.7647075655642430 0.6700970666270381 0.8032932340131698 0.9781582533046588
          0.3529343436684904 0.4399046453981219 0.8227422575131477 0.3429513409994397 0.0639093649921174 0.3679409552086901
          0.9952671853877433 0.5794636736734783 0.0250421702979845 0.8837083797377967 0.0772595488850731 0.3943233737429355
          0.7928440583730763 0.7376047626055993 0.9648552999829537 0.2389287114626962 0.5206322527545945 0.0983351798705611
          0.1341331580296290 0.4171084795414063 0.2039514517144266 0.6503634687846814 0.7493202001034418 0.1312064758182715
          0.5982209183292252 0.1587164885432170 0.4107506463783893 0.3724905226054058 0.2990520929065889 0.8922858466933502
          0.9324682637370133 0.9429053998504120 0.0315177594710983 0.1565990555302267 0.3934252430657919 0.7205489890694400
          0.2745934717438567 0.4316896798345985 0.1787980601100121 0.3622513668025094 0.5088174958142114 0.6835284807721292
          0.2582854272624701 0.8964105163003068 0.0816893960634201 0.4387754988844029 0.3994163890781560 0.5018358460287423
          0.1761056689180331 0.9525922810449248 0.1130890909337944 0.6005565331940966 0.1171311197652539 0.6623116175421665
          0.2483652246957718 0.8956814911357948 0.0412056597912570 0.5017321586649018 0.9767756478715170 0.9206156255162371
          0.1720268663279906 0.2663498435365410 0.4842175186955949 0.4838123810340171 0.7512248734982772 0.7779187666513998
          0.2231153295144658 0.7714411303259398 0.6995785343449606 0.4370020347064467 0.6088164574661412 0.2986845236243677
          0.8580945635888099 0.8599436995056411 0.6648275791311106 0.4804832862858324 0.6943789218683357 0.3820368751512481
          0.1231743977126158 0.0362418358330681 0.9171684905407427 0.5328515630437207 0.0578764728801873 0.5963642584780325
          0.0651924536469431 0.5791318206998678 0.7940223135363876 0.7782622990688464 0.8370854376737562 0.2173782516480345
          0.4611514151709583 0.9407242619193813 0.3169819924879888 0.0692986177346302 0.8077212168562448 0.6250211648947901
          0.0728872313967656 0.1650115703288546 0.9354869889229509 0.5132377189390548 0.7432805991013007 0.6345440325020101
          0.7569005199240237 0.1108125324288713 0.2114492762301085 0.7421209500209818 0.6516442772989443 0.2208372490886902
          0.2579857362466821 0.1416135360243185 0.6716476249724609 0.7509963062235276 0.4679781489940003 0.6662011241227854
          0.7253673934646818 0.4565839967938599 0.1659279070777949 0.7152392271177217 0.0094476341085491 0.6766546248504622
          0.2116737146235712 0.5781205664492428 0.3606986784532169 0.5373476404904579 0.0312391309332078 0.0935309527775745
          0.5654258596612191 0.4933549421178993 0.4346748309322130 0.3220642954109557 0.0062263950599849 0.0737151178494130
          0.0539201795235295 0.6798039006229138 0.5500273845649549 0.5347282488901165 0.0767387959844464 0.6711429183806140
          0.2176115805917300 0.4753594409825290 0.9337516804459353 0.1021111481025472 0.2044204606938260 0.0037939495868201
          0.3297690748477242 0.9241324203495521 0.7982712785837751 0.0290714379783759 0.2692194427848057 0.9695141104130361
          0.3090008720062422 0.8033901608302160 0.8785521137838496 0.5179184112127887 0.9614782388606561 0.3175208696688832
          0.7871958705242772 0.1804037800561749 0.6161777555253786 0.0787254199622341 0.9051117007473103 0.0771094947349589
          0.9588362141721601 0.5440923148342509 0.8634945621439319 0.2405794370719853 0.4059594735292160 0.2925235663071808
          0.7309894801048282 0.9700483721187488 0.8318148406832973 0.4849158872100066 0.5017704290104593 0.3785371246509415
          0.0205158449338875 0.9907952905474608 0.1545654933391684 0.8782385634278128 0.6019489853133294 0.7906981230999223
          0.2521929126363432 0.9716150255608206 0.0672474944937144 0.4673686197663716 0.0337000095394104 0.5347613958477050
          0.1164155276297819 0.9550270647902264 0.5796338522273943 0.3412746271057875 0.8523204100536866 0.1972657806074329
          0.8096282113891782 0.3047311952960293 0.6500663143518912 0.8456637563467384 0.3906199913247039 0.0493153326814327
          0.0953282361963043 0.4089217432664466 0.9734786110287174 0.7813877948631190 0.0869568546620415 0.7417237568666443
          0.5630292772867312 0.8719294300090183 0.8044927228429963 0.3760636376786568 0.1306022635272779 0.2908653129507012
          0.3505188438702752 0.2901130193235927 0.0309346793427824 0.4092653096970628 0.9788367317195323 0.4223113198793231
          0.0900433594418957 0.1787326345033293 0.2966289948749271 0.6954539758304935 0.2832782062952210 0.3251789785540518
          0.7688481562679232 0.4766407185048503 0.9288534597190189 0.3341192036963977 0.9436476306446026 0.8789762057451738
          0.0606108299327002 0.9254951873329387 0.7412746153715273 0.8109872417934331 0.4360667170346966 0.7233454095760591
          0.6976210279118584 0.2955977110451682 0.0994604820813603 0.1875580422474142 0.8431228106210912 0.6213582623034001
          0.6158399792301240 0.9406265592401716 0.8845641277007388 0.9350856253927768 0.2970236729050861 0.8712474915967705
          0.6910999373713885 0.3187032732785566 0.0127516549008907 0.8755324934933010 0.5639212047451645 0.1967190822555136
          0.9738387864540907 0.6568564085127088 0.0096719914074663 0.4238716923324118 0.3943384132270378 0.5395962035976353
          0.3564427828885958 0.2408352500616302 0.7594055518045913 0.7632195886304822 0.4137798466081193 0.4414728807283862
          0.5239588201936661 0.5330972627254891 0.9141526095541878 0.6308069665444429 0.5170567967508454 0.1320175579472910
          0.2107269322401846 0.5006082952330471 0.2035097924389047 0.0963022916895151 0.2210449262099226 0.7032288137490658
          0.7594632075907954 0.5307951061501054 0.7791221651707082 0.2055779572836323 0.3038993788887456 0.9507640657060110
          0.4129407322939939 0.1775009527834303 0.1476062761103801 0.1751860610377259 0.3900752085745849 0.8771340742513215
          0.9053619159104762 0.1499422572651893 0.5299226127542728 0.6017653172250573 0.5825611801123584 0.9077714583272647
          0.0333926144946559 0.9403067947106344 0.9513428539123672 0.1294283488054044 0.5599745850942128 0.5002092571867237
          0.3101720177615666 0.2570498427758426 0.6925285230652607 0.8481230391570452 0.9023913754849137 0.4653197116872522
          0.8343588953725288 0.5323583455178069 0.9698861643934974 0.3651689258556947 0.7336718735725285 0.1820194265070771
          0.8445718472607531 0.5474646979253884 0.2322075641283595 0.6912306474614923 0.8500062721624883 0.3733605501034879
          0.8263226430419690 0.2747654402923556 0.9545209373912912 0.3296699434195455 0.7826851725864679 0.7138541423414184
          0.2315888864270006 0.0733460418932701 0.1756356942547472 0.7624657826895492 0.6818425011422762 0.0685766740745661
          0.7342322955000906 0.6448893456865609 0.8631534634780776 0.7044589671187292 0.1781400733194514 0.0021679325560567
          0.8190454280205346 0.4312619102920555 0.6394935088553390 0.7967423203529798 0.8190204888041620 0.9416594404382338
          0.6201042942384526 0.1738725942406216 0.7738118042832002 0.6071287017273929 0.0870481666389564 0.7432012102454443
          0.9237631700338915 0.7810631857156576 0.0349328970906532 0.2969893657396291 0.5616073704249127 0.3400407488638806
          0.7444540735536782 0.9324778725138643 0.8558043441061352 0.5802828505261981 0.1226883500492032 0.9548107291573014
          0.2812101162883430 0.7594996646412645 0.8706844004002662 0.6865157545384726 0.3921572523561300 0.9938555328427444