<?xml version="1.0"?>
<VTKFile type="PolyData" version="1.0" byte_order="LittleEndian" header_type="UInt64">
  <PolyData>
    <Piece NumberOfPoints="20" NumberOfVerts="20" NumberOfLines="0" NumberOfStrips="0" NumberOfPolys="0">
      <PointData Scalars="temp">
        <DataArray Name="temp" NumberOfComponents="1" type="Float64" format="ascii" RangeMin="0.11232380884068305" RangeMax="0.9986326035811655">
          0.5890720970505128 0.3268986086578718 0.1448144482177102 0.2576384903723663 0.8574458883976873 0.6839737520406283
          0.9986326035811655 0.3194556656082242 0.4534082266242594 0.8676221777748950 0.6385221808378060 0.3318923019829476
          0.5419776327479333 0.1123238088406830 0.8165234436255825 0.2209316463478144 0.5149742681090496 0.5260877679247680
          0.2770886884732112 0.9044206316605501
        </DataArray>
        <DataArray Name="2-components" NumberOfComponents="2" type="Float64" format="ascii" RangeMin="0.01192155358275615" RangeMax="0.9490145030363609">
          0.4204270035661765 0.9490145030363609 0.7864711816566549 0.4815468959885630 0.0119215535827562 0.0597207807092479
          0.8257177483439162 0.4046369872739349 0.0531531123171690 0.2596390482071086 0.2811506610562717 0.9433030410624577
          0.8936293596271191 0.2022892694899581 0.1003608087345019 0.5730430655359530 0.7453773741488717 0.6007604785160442
          0.9092395428890321 0.9385777624120453 0.5615661006777212 0.8908316333576722 0.3124782869770458 0.7710535361311034
          0.2136507101264129 0.2883443963127228 0.2734427951922838 0.2485007122242413 0.0144745384478043 0.6091129763543156
          0.8618458103278591 0.2591405994003485 0.8668647914278148 0.4265298541907321 0.1603909008190777 0.0565316315409430
          0.4228071934122273 0.7359960547933326 0.4769537916279307 0.7006992708984805
        </DataArray>
        <DataArray Name="3-components" NumberOfComponents="3" type="Float64" format="ascii" RangeMin="0.02079884965962986" RangeMax="0.9983199556809254">
          0.9261806156102312 0.4526842850674920 0.3917947827194505 0.3592419246788816 0.9207452697946850 0.0278180708490150
          0.2349904981777623 0.0795443510228309 0.5657883468686661 0.2948885661324933 0.7193769267541885 0.0988020129816635
          0.0268196366997491 0.7018310907399513 0.7914683737300843 0.3782688291338249 0.2473226108228560 0.2627823218786545
          0.4984137186921088 0.3041873590603215 0.7186392108467865 0.6106608253770643 0.0646729072148587 0.1480143523868742
          0.9702434112898988 0.4715222037958284 0.7331722522876482 0.2106973939969884 0.6426786141941642 0.9115921673564267
          0.0345287813667512 0.1773567248506672 0.2962514934470256 0.3126333475071587 0.3249249442272334 0.5780774130897147
          0.9983199556809254 0.3547831120917448 0.0207988496596299 0.0996248310145578 0.3916196439944402 0.6046746919418857
          0.8792924894608538 0.1426086960632018 0.3544317346711524 0.5498989637627353 0.8375566887711513 0.5901740250590545
          0.9947671646588059 0.7489206394212843 0.0304343354124273 0.9234538424010137 0.9798888990537769 0.3373415663707561
          0.6533569100468444 0.5805916314301794 0.9231814078620875 0.8286460163085659 0.8841588239981764 0.8735697354630155
        </DataArray>
        <DataArray Name="4-components" NumberOfComponents="4" type="Float64" format="ascii" RangeMin="0.0014967060919942599" RangeMax="0.9881406358732199">
          0.4614049918736365 0.7027930867636041 0.9600580430351148 0.2867753000242432 0.4536384129556481 0.2310747199624076
          0.5617334275024616 0.2454226786765831 0.3422069204813598 0.2287033470751366 0.4072568134150685 0.1518073748623180
          0.9881406358732199 0.4553911259175266 0.5373672853581730 0.7672507985863412 0.9266745999442119 0.7322632355246509
          0.0799274071793086 0.8152930007654599 0.5604406473454870 0.5625557169033366 0.9072789858722415 0.2391263931429055
          0.9171475634192959 0.2407523767292434 0.8790267074009325 0.5488116193200679 0.6659812401916544 0.5090426594472293
          0.4643382701748804 0.8495852813723658 0.7744416897319085 0.2044735264450087 0.4850071727626024 0.5839475470210727
          0.7143908015230248 0.5794206502551287 0.0081361592168537 0.6955573418175889 0.1053509197882821 0.9638829072543322
          0.1731848392697353 0.9432406218483244 0.5364333261709561 0.9192334109128145 0.6508258549514463 0.9805878067694643
          0.0204191739316022 0.4868126511334131 0.5221184930077812 0.2389813460646182 0.7168512445113232 0.0981421484239310
          0.2264865520091253 0.5556044773558171 0.0014967060919943 0.8071023551095372 0.8131124563638072 0.2291474687981814
          0.2485887902515170 0.6439736602188860 0.8247632479613723 0.8029756027567611 0.5202481840523545 0.1322531647942260
          0.1271914449599068 0.9570477502608012 0.1512242558920613 0.3825330988330875 0.6991453175202802 0.0155939072998121
          0.7769456977339187 0.2241049706237768 0.0367399634931056 0.2364122900751108 0.2429700488725998 0.4360205245126649
          0.5665613622577458 0.9288059914439347
        </DataArray>
        <DataArray Name="force" NumberOfComponents="3" type="Float64" format="ascii" RangeMin="0.812922847044879" RangeMax="19.77989248384297">
          7.5696462677163856 7.8805690206100110 2.1226276166307123 5.6304376355706687 16.2537164518176134 3.0007029846719457
          3.4896316012225959 10.4051516624091551 18.7606409593224583 13.3571532097841246 9.2081894377479738 15.6711074351921766
          7.1494319644397519 14.8769933099985217 11.5559577767675652 6.2243114893136937 13.6698393050381366 5.1398618568035452
          0.8478289381241222 15.5744308793876591 13.7554612326582255 3.8406169563922310 17.9165609692226262 0.8129228470448790
          13.1608554901025450 18.4404820736176269 4.3171152583257939 8.3359675751631208 2.8632593252968674 15.5295895249808513
          17.9295115393306901 6.6026595310960534 2.3492592378245680 1.5975749048747412 9.2637417477109310 6.8833804026011469
          16.0922790946674716 16.7499253365725878 12.4935159114607153 5.8566795730404442 19.7798924838429713 13.1022263058916284
          13.4089722099009592 9.6906055411185683 15.4378442512662559 14.4020075682821513 6.1130489766114193 11.3744245306433065
          12.0713486819437357 19.5116026355895862 8.6562037465528068 6.9666330070375420 3.1349331758365517 4.6908944443377454
          6.1056717188751541 3.5795140831682071 2.1762238142630097 0.8306988087347289 12.4801103723574318 8.1705936006864572
        </DataArray>
        <DataArray Name="stress" NumberOfComponents="9" type="Float64" format="ascii" RangeMin="25.484922397537744" RangeMax="991.813296056026">
          83.8779654146071323 142.5054356802638722 859.1832025615215116 951.6426468787626618 253.1544640199696516 237.2063592991835321
          25.4849223975377441 68.9716778550071297 136.2314288866146512 239.1870766414089360 464.1121273494808293 296.2931579008676408
          482.8574528780482638 298.9900815340190547 752.8553653406353305 148.7139504945724866 843.4198569744044107 542.3801510732118913
          266.3224883756356576 166.1054592356799731 545.2715034530169760 540.4772655009574009 425.6977815611709843 984.9441622322747207
          192.2478442557223843 302.9402465121239061 252.7407906607988082 241.4935871685083271 213.8364497328251161 158.8137305426818955
          881.0804503539732195 266.9829656894703476 269.2309065168845450 375.3796919056032948 171.9466263225641853 989.5774967048105282
          247.0353873140461758 899.0530209803387152 167.3720731319060633 600.2178745176197481 380.9270559237240832 321.0439769060571393
          143.2560067410149145 965.1661533229571432 147.7750567780307165 684.7911076785098885 868.1078675161218143 288.0191656191515222
          58.8454659599059156 123.0475573466771664 276.9718433448198311 179.6719531260621068 153.1321627687739522 58.8762104322741990
          859.7448632901533756 599.1674586192078777 643.9086619093718582 58.4385906145578033 445.1130243356238338 600.0999190043047520
          824.1910181204996206 510.9869560283323153 102.7852599078639173 251.8934712527984914 664.6539864840136715 104.5995017338698858
          576.6277109490810062 817.0897333510744147 552.9934724827800210 714.2369348462848393 966.4072825743471640 962.9225456011854476
          160.5681377247443322 910.8104190770296782 634.9798606775482313 568.4868590387400218 430.3209447055837700 388.9270010162264839
          277.2728581250544266 296.5108033849998037 887.4141924268762978 160.9810806088679556 502.3286351313919340 687.6405769233253977
          581.1329173800503440 870.7245975527149540 379.2419244626618138 502.3371472863221925 52.1037453871661143 102.9230543931605126
          305.0676958957902798 281.9306490548997317 973.6648389658232645 743.0818060214866136 533.0142776511590910 474.0123481455792671
          196.8570009135668499 367.6859932128319315 555.5679077982383660 974.5196467903908797 328.2199952885185326 163.6737261926253382
          659.2989053860325157 796.4149740841819494 957.9495047872950408 659.2131632145187723 895.8493461158965374 92.4756204848951029
          344.1641824133579917 512.2463491257958594 311.6297892110146677 815.6347071838714555 95.8980665270567840 752.7646967370844777
          940.8106487502667505 255.1757519945270190 251.5617817151301097 555.3119787098257802 728.6494105480408052 772.4620663387114519
          571.2202578030485256 230.7195996307569317 350.8563450354778297 45.1697987304620057 482.8075093062225278 121.7179301070041504
          420.1782708139298848 133.8158890041429743 963.5452739541642586 645.1746729269460729 143.5301824737948948 411.1080474832262439
          257.6083774694399722 115.6431906423740514 539.3459754592272475 458.7717152440949917 879.7838907698620687 694.3652531482650829
          426.4762422838322777 625.9701384233071622 678.3368087359006040 585.5848536476079289 441.3463217649515968 743.8122567506006817
          201.5700695755967615 672.7966097718323226 215.7486303855400536 249.0335457956344101 991.8132960560260472 539.6513145584866606
          727.1846323908863496 708.0749678770731634 777.5757888278395740 529.8485570533355258 871.4437356497290921 111.2502655284042277
          347.9611180323691997 48.8858618195423560 454.1120994113666711 233.3193109633631082 396.8277919496824211 694.9470324973453899
          119.5673115968247657 80.9665423564790387 885.9565755379496750 685.6571022262000952 231.0728953491725122 141.5986784672730323
          689.8615823577226820 160.6921341348709404 966.3335978142930571 757.3313588048441716 792.5521479669126848 667.6575461115299959
          156.9610375629815167 212.3747988693971536 679.5425302688169040 280.1266480899777775 485.2220506010007739 851.4295368170795655
        </DataArray>
        <DataArray Name="normals" NumberOfComponents="3" type="Float64" format="ascii" RangeMin="0.014967608290058375" RangeMax="0.9608559678824963">
          0.5538794124869963 0.6241599555032752 0.5510371551621630 0.8885364252420764 0.3476132874798656 0.2994461944748544
          0.3970517425015363 0.8409316855234362 0.3676735155803399 0.2594664267925311 0.5404287797340159 0.8003836001585231
          0.5633904722763770 0.0598266771827304 0.8240218106612678 0.7705672092573297 0.0310310016468740 0.6366029005228946
          0.9209294915019998 0.2681675430477260 0.2827985865198308 0.5862347388550062 0.1391750791547552 0.7980971922653720
          0.4821629949379403 0.6857178882916053 0.5452612437991328 0.3929821567379784 0.8447693239447149 0.3632214390802894
          0.6034375789624816 0.7972697529681996 0.0149676082900584 0.4787201085169788 0.1504264115314710 0.8649849434615938
          0.1789595921194061 0.8014051806823704 0.5707216491109419 0.9163092425762757 0.0466809033743457 0.3977414552563599
          0.2353092388581537 0.8354290549501422 0.4966768126791391 0.9292103598921395 0.3616930323898233 0.0758040723825248
          0.4675870207497487 0.4144626015981777 0.7807580482472432 0.7973340840045221 0.5604684544899775 0.2239050468530930
          0.9608559678824963 0.2110367222010478 0.1794973840122159 0.3694161211846060 0.6492960589487825 0.6647904611548661
        </DataArray>
      </PointData>
      <Points>
        <DataArray Name="Points" NumberOfComponents="3" type="Float64" format="ascii" RangeMin="0.03606131000291102" RangeMax="0.9770526614339072">
          0.9191090317991818 0.6421955999238554 0.7537122297291767 0.1393145681027350 0.0873195479896001 0.7880020580364918
          0.3261509370344888 0.5410678214759677 0.2402351758680060 0.5454229255759049 0.4005545036798892 0.7151918872797569
          0.8366799410811948 0.5884811425466829 0.2961545640333596 0.2810176906539642 0.7055972446574292 0.4225964301897521
          0.0573159852472062 0.7470273067071216 0.4523130130592968 0.1757747380313244 0.0493769993144870 0.2924753386949548
          0.0667991310914613 0.7511564859911245 0.0637715240806562 0.4319083194117714 0.3641724134430167 0.1519715256925609
          0.5467103397159158 0.4432930376023336 0.0360613100029110 0.8228931912295053 0.2732926831299841 0.1689852192728417
          0.6443697547109174 0.1075410788025926 0.3532450981171027 0.3857036581156064 0.4455559100158843 0.9770526614339072
          0.7293940090533850 0.3122350583311531 0.8947552392940534 0.7832735951745574 0.2620003413345412 0.3094831861549427
          0.1294506297724709 0.4221713562335928 0.9397650349673574 0.3670428731605497 0.4347749726828846 0.9170935543593193
          0.9472939210005341 0.2547729480887090 0.7097035779964328 0.0499764048396870 0.1347439306209732 0.5065059431067037
        </DataArray>
      </Points>
      <Verts>
        <DataArray Name="connectivity" type="Int32" format="ascii" RangeMin="0" RangeMax="19">
          0 1 2 3 4 5 6 7 8 9 10 11 12 13 14 15 16 17 18 19
        </DataArray>
        <DataArray Name="offsets" type="Int32" format="ascii" RangeMin="1" RangeMax="20">
          1 2 3 4 5 6 7 8 9 10 11 12 13 14 15 16 17 18 19 20
        </DataArray>
      </Verts>
      <Lines>
      </Lines>
      <Strips>
      </Strips>
      <Polys>
      </Polys>
    </Piece>
  </PolyData>
