<?xml version="1.0"?>
<VTKFile type="UnstructuredGrid" version="0.1" byte_order="LittleEndian">
<!--This file was created by meshio v5.3.5-->
<UnstructuredGrid>
<Piece NumberOfPoints="35" NumberOfCells="84">
<Points>
<DataArray type="Float64" Name="Points" NumberOfComponents="3" format="ascii">
0.00000000000e+00
0.00000000000e+00
0.00000000000e+00
3.00000000000e+00
1.00000000000e+00
1.00000000000e+00
0.00000000000e+00
0.00000000000e+00
1.00000000000e+00
0.00000000000e+00
1.00000000000e+00
1.00000000000e+00
1.10000000000e+00
0.00000000000e+00
0.00000000000e+00
1.20000000000e+00
1.00000000000e+00
0.00000000000e+00
1.30000000000e+00
0.00000000000e+00
1.00000000000e+00
1.40000000000e+00
1.00000000000e+00
1.00000000000e+00
2.50000000000e+00
0.00000000000e+00
0.00000000000e+00
2.60000000000e+00
1.00000000000e+00
0.00000000000e+00
2.70000000000e+00
0.00000000000e+00
1.00000000000e+00
2.80000000000e+00
1.00000000000e+00
1.00000000000e+00
3.00000000000e+00
0.00000000000e+00
0.00000000000e+00
3.00000000000e+00
1.00000000000e+00
0.00000000000e+00
3.00000000000e+00
0.00000000000e+00
1.00000000000e+00
0.00000000000e+00
1.00000000000e+00
0.00000000000e+00
5.75000000000e-01
5.00000000000e-01
0.00000000000e+00
6.00000000000e-01
0.00000000000e+00
5.00000000000e-01
1.25000000000e+00
5.00000000000e-01
5.00000000000e-01
6.50000000000e-01
1.00000000000e+00
5.00000000000e-01
0.00000000000e+00
5.00000000000e-01
5.00000000000e-01
6.75000000000e-01
5.00000000000e-01
1.00000000000e+00
6.25000000000e-01
5.00000000000e-01
5.00000000000e-01
1.85000000000e+00
5.00000000000e-01
0.00000000000e+00
1.90000000000e+00
0.00000000000e+00
5.00000000000e-01
2.65000000000e+00
5.00000000000e-01
5.00000000000e-01
2.00000000000e+00
1.00000000000e+00
5.00000000000e-01
2.05000000000e+00
5.00000000000e-01
1.00000000000e+00
1.95000000000e+00
5.00000000000e-01
5.00000000000e-01
2.77500000000e+00
5.00000000000e-01
0.00000000000e+00
2.80000000000e+00
0.00000000000e+00
5.00000000000e-01
3.00000000000e+00
5.00000000000e-01
5.00000000000e-01
2.85000000000e+00
1.00000000000e+00
5.00000000000e-01
2.87500000000e+00
5.00000000000e-01
1.00000000000e+00
2.82500000000e+00
5.00000000000e-01
5.00000000000e-01

</DataArray>
</Points>
<Cells>
<DataArray type="Int64" Name="connectivity" format="ascii">
2
0
20
17
0
15
20
16
15
3
20
19
3
2
20
21
2
6
17
21
0
4
16
17
15
5
19
16
3
7
21
19
6
4
17
18
4
5
16
18
5
7
19
18
7
6
21
18
20
17
21
2
20
16
17
0
20
19
16
15
20
21
19
3
18
21
17
6
18
17
16
4
18
16
19
5
18
19
21
7
20
21
17
22
20
17
16
22
20
16
19
22
20
19
21
22
18
17
21
22
18
16
17
22
18
19
16
22
18
21
19
22
6
4
18
24
4
5
18
23
5
7
18
26
7
6
18
27
6
10
24
27
4
8
23
24
5
9
26
23
7
11
27
26
10
8
24
25
8
9
23
25
9
11
26
25
11
10
27
25
18
24
27
6
18
23
24
4
18
26
23
5
18
27
26
7
25
27
24
10
25
24
23
8
25
23
26
9
25
26
27
11
18
27
24
28
18
24
23
28
18
23
26
28
18
26
27
28
25
24
27
28
25
23
24
28
25
26
23
28
25
27
26
28
10
8
25
30
8
9
25
29
9
11
25
32
11
10
25
33
10
14
30
33
8
12
29
30
9
13
32
29
11
1
33
32
14
12
30
31
12
13
29
31
13
1
32
31
1
14
33
31
25
30
33
10
25
29
30
8
25
32
29
9
25
33
32
11
31
33
30
14
31
30
29
12
31
29
32
13
31
32
33
1
25
33
30
34
25
30
29
34
25
29
32
34
25
32
33
34
31
30
33
34
31
29
30
34
31
32
29
34
31
33
32
34

</DataArray>
<DataArray type="Int64" Name="offsets" format="ascii">
4
8
12
16
20
24
28
32
36
40
44
48
52
56
60
64
68
72
76
80
84
88
92
96
100
104
108
112
116
120
124
128
132
136
140
144
148
152
156
160
164
168
172
176
180
184
188
192
196
200
204
208
212
216
220
224
228
232
236
240
244
248
252
256
260
264
268
272
276
280
284
288
292
296
300
304
308
312
316
320
324
328
332
336

</DataArray>
<DataArray type="Int64" Name="types" format="ascii">
10
10
10
10
10
10
10
10
10
10
10
10
10
10
10
10
10
10
10
10
10
10
10
10
10
10
10
10
10
10
10
10
10
10
10
10
10
10
10
10
10
10
10
10
10
10
10
10
10
10
10
10
10
10
10
10
10
10
10
10
10
10
10
10
10
10
10
10
10
10
10
10
10
10
10
10
10
10
10
10
10
10
10
10

</DataArray>
</Cells>
<CellData>
<DataArray type="Int64" Name="material" format="ascii">
1
1
1
1
1
1
1
1
1
1
1
1
1
1
1
1
1
1
1
1
1
1
1
1
1
1
1
1
1
1
1
1
1
1
1
1
1
1
1
1
1
1
1
1
1
1
1
1
1
1
1
1
1
1
1
1
1
1
1
1
1
1
1
1
1
1
1
1
1
1
1
1
1
1
1
1
1
1
1
1
1
1
1
1

</DataArray>
</CellData>
</Piece>
</UnstructuredGrid>
</VTKFile>
