<?xml version="1.0"?>
<VTKFile type="UnstructuredGrid" version="0.1" byte_order="LittleEndian">
<!--This file was created by meshio v5.3.5-->
<UnstructuredGrid>
<Piece NumberOfPoints="181" NumberOfCells="84">
<Points>
<DataArray type="Float64" Name="Points" NumberOfComponents="3" format="ascii">
0.00000000000e+00
0.00000000000e+00
0.00000000000e+00
3.00000000000e+00
1.00000000000e+00
1.00000000000e+00
0.00000000000e+00
0.00000000000e+00
1.00000000000e+00
0.00000000000e+00
1.00000000000e+00
1.00000000000e+00
1.10000000000e+00
0.00000000000e+00
0.00000000000e+00
1.20000000000e+00
1.00000000000e+00
0.00000000000e+00
1.30000000000e+00
0.00000000000e+00
1.00000000000e+00
1.40000000000e+00
1.00000000000e+00
1.00000000000e+00
2.50000000000e+00
0.00000000000e+00
0.00000000000e+00
2.60000000000e+00
1.00000000000e+00
0.00000000000e+00
2.70000000000e+00
0.00000000000e+00
1.00000000000e+00
2.80000000000e+00
1.00000000000e+00
1.00000000000e+00
3.00000000000e+00
0.00000000000e+00
0.00000000000e+00
3.00000000000e+00
1.00000000000e+00
0.00000000000e+00
3.00000000000e+00
0.00000000000e+00
1.00000000000e+00
0.00000000000e+00
1.00000000000e+00
0.00000000000e+00
5.75000000000e-01
5.00000000000e-01
0.00000000000e+00
6.00000000000e-01
0.00000000000e+00
5.00000000000e-01
1.25000000000e+00
5.00000000000e-01
5.00000000000e-01
6.50000000000e-01
1.00000000000e+00
5.00000000000e-01
0.00000000000e+00
5.00000000000e-01
5.00000000000e-01
6.75000000000e-01
5.00000000000e-01
1.00000000000e+00
6.25000000000e-01
5.00000000000e-01
5.00000000000e-01
1.85000000000e+00
5.00000000000e-01
0.00000000000e+00
1.90000000000e+00
0.00000000000e+00
5.00000000000e-01
2.65000000000e+00
5.00000000000e-01
5.00000000000e-01
2.00000000000e+00
1.00000000000e+00
5.00000000000e-01
2.05000000000e+00
5.00000000000e-01
1.00000000000e+00
1.95000000000e+00
5.00000000000e-01
5.00000000000e-01
2.77500000000e+00
5.00000000000e-01
0.00000000000e+00
2.80000000000e+00
0.00000000000e+00
5.00000000000e-01
3.00000000000e+00
5.00000000000e-01
5.00000000000e-01
2.85000000000e+00
1.00000000000e+00
5.00000000000e-01
2.87500000000e+00
5.00000000000e-01
1.00000000000e+00
2.82500000000e+00
5.00000000000e-01
5.00000000000e-01
0.00000000000e+00
0.00000000000e+00
5.00000000000e-01
0.00000000000e+00
2.50000000000e-01
2.50000000000e-01
0.00000000000e+00
2.50000000000e-01
7.50000000000e-01
3.00000000000e-01
0.00000000000e+00
7.50000000000e-01
3.00000000000e-01
0.00000000000e+00
2.50000000000e-01
3.00000000000e-01
2.50000000000e-01
5.00000000000e-01
0.00000000000e+00
5.00000000000e-01
0.00000000000e+00
0.00000000000e+00
7.50000000000e-01
2.50000000000e-01
2.87500000000e-01
2.50000000000e-01
0.00000000000e+00
2.87500000000e-01
7.50000000000e-01
0.00000000000e+00
2.87500000000e-01
5.00000000000e-01
2.50000000000e-01
0.00000000000e+00
1.00000000000e+00
5.00000000000e-01
0.00000000000e+00
7.50000000000e-01
7.50000000000e-01
3.25000000000e-01
1.00000000000e+00
2.50000000000e-01
3.25000000000e-01
1.00000000000e+00
7.50000000000e-01
3.25000000000e-01
7.50000000000e-01
5.00000000000e-01
0.00000000000e+00
5.00000000000e-01
1.00000000000e+00
3.37500000000e-01
7.50000000000e-01
1.00000000000e+00
3.37500000000e-01
2.50000000000e-01
1.00000000000e+00
3.37500000000e-01
5.00000000000e-01
7.50000000000e-01
6.50000000000e-01
0.00000000000e+00
1.00000000000e+00
9.50000000000e-01
0.00000000000e+00
7.50000000000e-01
9.87500000000e-01
2.50000000000e-01
1.00000000000e+00
6.37500000000e-01
2.50000000000e-01
7.50000000000e-01
5.50000000000e-01
0.00000000000e+00
0.00000000000e+00
8.37500000000e-01
2.50000000000e-01
0.00000000000e+00
8.50000000000e-01
0.00000000000e+00
2.50000000000e-01
5.87500000000e-01
2.50000000000e-01
2.50000000000e-01
6.00000000000e-01
1.00000000000e+00
0.00000000000e+00
9.25000000000e-01
1.00000000000e+00
2.50000000000e-01
8.87500000000e-01
7.50000000000e-01
0.00000000000e+00
6.12500000000e-01
7.50000000000e-01
2.50000000000e-01
7.00000000000e-01
1.00000000000e+00
1.00000000000e+00
1.03750000000e+00
7.50000000000e-01
1.00000000000e+00
1.02500000000e+00
1.00000000000e+00
7.50000000000e-01
6.62500000000e-01
7.50000000000e-01
7.50000000000e-01
1.20000000000e+00
0.00000000000e+00
5.00000000000e-01
1.27500000000e+00
2.50000000000e-01
7.50000000000e-01
1.17500000000e+00
2.50000000000e-01
2.50000000000e-01
9.25000000000e-01
2.50000000000e-01
5.00000000000e-01
1.15000000000e+00
5.00000000000e-01
0.00000000000e+00
1.22500000000e+00
7.50000000000e-01
2.50000000000e-01
9.12500000000e-01
5.00000000000e-01
2.50000000000e-01
1.30000000000e+00
1.00000000000e+00
5.00000000000e-01
1.32500000000e+00
7.50000000000e-01
7.50000000000e-01
9.50000000000e-01
7.50000000000e-01
5.00000000000e-01
1.35000000000e+00
5.00000000000e-01
1.00000000000e+00
9.62500000000e-01
5.00000000000e-01
7.50000000000e-01
3.12500000000e-01
5.00000000000e-01
5.00000000000e-01
6.50000000000e-01
5.00000000000e-01
7.50000000000e-01
6.12500000000e-01
2.50000000000e-01
5.00000000000e-01
6.00000000000e-01
5.00000000000e-01
2.50000000000e-01
6.37500000000e-01
7.50000000000e-01
5.00000000000e-01
9.37500000000e-01
5.00000000000e-01
5.00000000000e-01
1.60000000000e+00
0.00000000000e+00
7.50000000000e-01
1.50000000000e+00
0.00000000000e+00
2.50000000000e-01
1.57500000000e+00
2.50000000000e-01
5.00000000000e-01
1.47500000000e+00
2.50000000000e-01
0.00000000000e+00
1.52500000000e+00
7.50000000000e-01
0.00000000000e+00
1.55000000000e+00
5.00000000000e-01
2.50000000000e-01
1.60000000000e+00
1.00000000000e+00
2.50000000000e-01
1.70000000000e+00
1.00000000000e+00
7.50000000000e-01
1.62500000000e+00
7.50000000000e-01
5.00000000000e-01
1.72500000000e+00
7.50000000000e-01
1.00000000000e+00
1.67500000000e+00
2.50000000000e-01
1.00000000000e+00
1.65000000000e+00
5.00000000000e-01
7.50000000000e-01
2.00000000000e+00
0.00000000000e+00
1.00000000000e+00
2.30000000000e+00
0.00000000000e+00
7.50000000000e-01
2.37500000000e+00
2.50000000000e-01
1.00000000000e+00
1.97500000000e+00
2.50000000000e-01
7.50000000000e-01
1.80000000000e+00
0.00000000000e+00
0.00000000000e+00
2.17500000000e+00
2.50000000000e-01
0.00000000000e+00
2.20000000000e+00
0.00000000000e+00
2.50000000000e-01
1.87500000000e+00
2.50000000000e-01
2.50000000000e-01
1.90000000000e+00
1.00000000000e+00
0.00000000000e+00
2.30000000000e+00
1.00000000000e+00
2.50000000000e-01
2.22500000000e+00
7.50000000000e-01
0.00000000000e+00
1.92500000000e+00
7.50000000000e-01
2.50000000000e-01
2.10000000000e+00
1.00000000000e+00
1.00000000000e+00
2.42500000000e+00
7.50000000000e-01
1.00000000000e+00
2.40000000000e+00
1.00000000000e+00
7.50000000000e-01
2.02500000000e+00
7.50000000000e-01
7.50000000000e-01
2.60000000000e+00
0.00000000000e+00
5.00000000000e-01
2.67500000000e+00
2.50000000000e-01
7.50000000000e-01
2.57500000000e+00
2.50000000000e-01
2.50000000000e-01
2.27500000000e+00
2.50000000000e-01
5.00000000000e-01
2.55000000000e+00
5.00000000000e-01
0.00000000000e+00
2.62500000000e+00
7.50000000000e-01
2.50000000000e-01
2.25000000000e+00
5.00000000000e-01
2.50000000000e-01
2.70000000000e+00
1.00000000000e+00
5.00000000000e-01
2.72500000000e+00
7.50000000000e-01
7.50000000000e-01
2.32500000000e+00
7.50000000000e-01
5.00000000000e-01
2.75000000000e+00
5.00000000000e-01
1.00000000000e+00
2.35000000000e+00
5.00000000000e-01
7.50000000000e-01
1.60000000000e+00
5.00000000000e-01
5.00000000000e-01
2.00000000000e+00
5.00000000000e-01
7.50000000000e-01
1.92500000000e+00
2.50000000000e-01
5.00000000000e-01
1.90000000000e+00
5.00000000000e-01
2.50000000000e-01
1.97500000000e+00
7.50000000000e-01
5.00000000000e-01
2.30000000000e+00
5.00000000000e-01
5.00000000000e-01
2.75000000000e+00
0.00000000000e+00
7.50000000000e-01
2.65000000000e+00
0.00000000000e+00
2.50000000000e-01
2.72500000000e+00
2.50000000000e-01
5.00000000000e-01
2.63750000000e+00
2.50000000000e-01
0.00000000000e+00
2.68750000000e+00
7.50000000000e-01
0.00000000000e+00
2.71250000000e+00
5.00000000000e-01
2.50000000000e-01
2.72500000000e+00
1.00000000000e+00
2.50000000000e-01
2.82500000000e+00
1.00000000000e+00
7.50000000000e-01
2.75000000000e+00
7.50000000000e-01
5.00000000000e-01
2.83750000000e+00
7.50000000000e-01
1.00000000000e+00
2.78750000000e+00
2.50000000000e-01
1.00000000000e+00
2.76250000000e+00
5.00000000000e-01
7.50000000000e-01
2.85000000000e+00
0.00000000000e+00
1.00000000000e+00
2.90000000000e+00
0.00000000000e+00
7.50000000000e-01
2.93750000000e+00
2.50000000000e-01
1.00000000000e+00
2.83750000000e+00
2.50000000000e-01
7.50000000000e-01
2.75000000000e+00
0.00000000000e+00
0.00000000000e+00
2.88750000000e+00
2.50000000000e-01
0.00000000000e+00
2.90000000000e+00
0.00000000000e+00
2.50000000000e-01
2.78750000000e+00
2.50000000000e-01
2.50000000000e-01
2.80000000000e+00
1.00000000000e+00
0.00000000000e+00
2.92500000000e+00
1.00000000000e+00
2.50000000000e-01
2.88750000000e+00
7.50000000000e-01
0.00000000000e+00
2.81250000000e+00
7.50000000000e-01
2.50000000000e-01
2.90000000000e+00
1.00000000000e+00
1.00000000000e+00
2.93750000000e+00
7.50000000000e-01
1.00000000000e+00
2.92500000000e+00
1.00000000000e+00
7.50000000000e-01
2.86250000000e+00
7.50000000000e-01
7.50000000000e-01
3.00000000000e+00
0.00000000000e+00
5.00000000000e-01
3.00000000000e+00
2.50000000000e-01
7.50000000000e-01
3.00000000000e+00
2.50000000000e-01
2.50000000000e-01
2.90000000000e+00
2.50000000000e-01
5.00000000000e-01
3.00000000000e+00
5.00000000000e-01
0.00000000000e+00
3.00000000000e+00
7.50000000000e-01
2.50000000000e-01
2.88750000000e+00
5.00000000000e-01
2.50000000000e-01
3.00000000000e+00
1.00000000000e+00
5.00000000000e-01
3.00000000000e+00
7.50000000000e-01
7.50000000000e-01
2.92500000000e+00
7.50000000000e-01
5.00000000000e-01
3.00000000000e+00
5.00000000000e-01
1.00000000000e+00
2.93750000000e+00
5.00000000000e-01
7.50000000000e-01
2.73750000000e+00
5.00000000000e-01
5.00000000000e-01
2.85000000000e+00
5.00000000000e-01
7.50000000000e-01
2.81250000000e+00
2.50000000000e-01
5.00000000000e-01
2.80000000000e+00
5.00000000000e-01
2.50000000000e-01
2.83750000000e+00
7.50000000000e-01
5.00000000000e-01
2.91250000000e+00
5.00000000000e-01
5.00000000000e-01

</DataArray>
</Points>
<Cells>
<DataArray type="Int64" Name="connectivity" format="ascii">
2
0
20
17
35
36
37
38
39
40
0
15
20
16
41
42
36
43
44
45
15
3
20
19
46
47
42
48
49
50
3
2
20
21
51
37
47
52
53
54
2
6
17
21
55
56
38
53
57
58
0
4
16
17
59
60
43
39
61
62
15
5
19
16
63
64
48
44
65
66
3
7
21
19
67
68
52
49
69
70
6
4
17
18
71
61
56
72
73
74
4
5
16
18
75
65
60
73
76
77
5
7
19
18
78
69
64
76
79
80
7
6
21
18
81
57
68
79
72
82
20
17
21
2
40
58
54
37
38
53
20
16
17
0
45
62
40
36
43
39
20
19
16
15
50
66
45
42
48
44
20
21
19
3
54
70
50
47
52
49
18
21
17
6
82
58
74
72
57
56
18
17
16
4
74
62
77
73
61
60
18
16
19
5
77
66
80
76
65
64
18
19
21
7
80
70
82
79
69
68
20
21
17
22
54
58
40
83
84
85
20
17
16
22
40
62
45
83
85
86
20
16
19
22
45
66
50
83
86
87
20
19
21
22
50
70
54
83
87
84
18
17
21
22
74
58
82
88
85
84
18
16
17
22
77
62
74
88
86
85
18
19
16
22
80
66
77
88
87
86
18
21
19
22
82
70
80
88
84
87
6
4
18
24
71
73
72
89
90
91
4
5
18
23
75
76
73
92
93
94
5
7
18
26
78
79
76
95
96
97
7
6
18
27
81
72
79
98
99
100
6
10
24
27
101
102
89
99
103
104
4
8
23
24
105
106
92
90
107
108
5
9
26
23
109
110
95
93
111
112
7
11
27
26
113
114
98
96
115
116
10
8
24
25
117
107
102
118
119
120
8
9
23
25
121
111
106
119
122
123
9
11
26
25
124
115
110
122
125
126
11
10
27
25
127
103
114
125
118
128
18
24
27
6
91
104
100
72
89
99
18
23
24
4
94
108
91
73
92
90
18
26
23
5
97
112
94
76
95
93
18
27
26
7
100
116
97
79
98
96
25
27
24
10
128
104
120
118
103
102
25
24
23
8
120
108
123
119
107
106
25
23
26
9
123
112
126
122
111
110
25
26
27
11
126
116
128
125
115
114
18
27
24
28
100
104
91
129
130
131
18
24
23
28
91
108
94
129
131
132
18
23
26
28
94
112
97
129
132
133
18
26
27
28
97
116
100
129
133
130
25
24
27
28
120
104
128
134
131
130
25
23
24
28
123
108
120
134
132
131
25
26
23
28
126
112
123
134
133
132
25
27
26
28
128
116
126
134
130
133
10
8
25
30
117
119
118
135
136
137
8
9
25
29
121
122
119
138
139
140
9
11
25
32
124
125
122
141
142
143
11
10
25
33
127
118
125
144
145
146
10
14
30
33
147
148
135
145
149
150
8
12
29
30
151
152
138
136
153
154
9
13
32
29
155
156
141
139
157
158
11
1
33
32
159
160
144
142
161
162
14
12
30
31
163
153
148
164
165
166
12
13
29
31
167
157
152
165
168
169
13
1
32
31
170
161
156
168
171
172
1
14
33
31
173
149
160
171
164
174
25
30
33
10
137
150
146
118
135
145
25
29
30
8
140
154
137
119
138
136
25
32
29
9
143
158
140
122
141
139
25
33
32
11
146
162
143
125
144
142
31
33
30
14
174
150
166
164
149
148
31
30
29
12
166
154
169
165
153
152
31
29
32
13
169
158
172
168
157
156
31
32
33
1
172
162
174
171
161
160
25
33
30
34
146
150
137
175
176
177
25
30
29
34
137
154
140
175
177
178
25
29
32
34
140
158
143
175
178
179
25
32
33
34
143
162
146
175
179
176
31
30
33
34
166
150
174
180
177
176
31
29
30
34
169
154
166
180
178
177
31
32
29
34
172
158
169
180
179
178
31
33
32
34
174
162
172
180
176
179

</DataArray>
<DataArray type="Int64" Name="offsets" format="ascii">
10
20
30
40
50
60
70
80
90
100
110
120
130
140
150
160
170
180
190
200
210
220
230
240
250
260
270
280
290
300
310
320
330
340
350
360
370
380
390
400
410
420
430
440
450
460
470
480
490
500
510
520
530
540
550
560
570
580
590
600
610
620
630
640
650
660
670
680
690
700
710
720
730
740
750
760
770
780
790
800
810
820
830
840

</DataArray>
<DataArray type="Int64" Name="types" format="ascii">
24
24
24
24
24
24
24
24
24
24
24
24
24
24
24
24
24
24
24
24
24
24
24
24
24
24
24
24
24
24
24
24
24
24
24
24
24
24
24
24
24
24
24
24
24
24
24
24
24
24
24
24
24
24
24
24
24
24
24
24
24
24
24
24
24
24
24
24
24
24
24
24
24
24
24
24
24
24
24
24
24
24
24
24

</DataArray>
</Cells>
<CellData>
<DataArray type="Int64" Name="material" format="ascii">
1
1
1
1
1
1
1
1
1
1
1
1
1
1
1
1
1
1
1
1
1
1
1
1
1
1
1
1
1
1
1
1
1
1
1
1
1
1
1
1
1
1
1
1
1
1
1
1
1
1
1
1
1
1
1
1
1
1
1
1
1
1
1
1
1
1
1
1
1
1
1
1
1
1
1
1
1
1
1
1
1
1
1
1

</DataArray>
</CellData>
</Piece>
</UnstructuredGrid>
</VTKFile>
