<?xml version="1.0"?>
<VTKFile type="UnstructuredGrid" version="0.1" byte_order="LittleEndian">
<!--This file was created by meshio v5.3.5-->
<UnstructuredGrid>
<Piece NumberOfPoints="24" NumberOfCells="4">
<Points>
<DataArray type="Float64" Name="Points" NumberOfComponents="3" format="ascii">
0.00000000000e+00
0.00000000000e+00
0.00000000000e+00
3.00000000000e+00
1.00000000000e+00
1.00000000000e+00
0.00000000000e+00
0.00000000000e+00
1.00000000000e+00
0.00000000000e+00
1.00000000000e+00
1.00000000000e+00
1.00000000000e+00
0.00000000000e+00
0.00000000000e+00
1.00000000000e+00
1.00000000000e+00
0.00000000000e+00
1.00000000000e+00
0.00000000000e+00
1.00000000000e+00
1.00000000000e+00
1.00000000000e+00
1.00000000000e+00
2.00000000000e+00
0.00000000000e+00
0.00000000000e+00
2.00000000000e+00
1.00000000000e+00
0.00000000000e+00
2.00000000000e+00
0.00000000000e+00
1.00000000000e+00
2.00000000000e+00
1.00000000000e+00
1.00000000000e+00
3.00000000000e+00
0.00000000000e+00
0.00000000000e+00
3.00000000000e+00
1.00000000000e+00
0.00000000000e+00
3.00000000000e+00
0.00000000000e+00
1.00000000000e+00
0.00000000000e+00
1.00000000000e+00
0.00000000000e+00
4.00000000000e+00
0.00000000000e+00
0.00000000000e+00
4.00000000000e+00
1.00000000000e+00
0.00000000000e+00
4.00000000000e+00
0.00000000000e+00
1.00000000000e+00
4.00000000000e+00
1.00000000000e+00
1.00000000000e+00
5.00000000000e+00
0.00000000000e+00
0.00000000000e+00
5.00000000000e+00
1.00000000000e+00
0.00000000000e+00
5.00000000000e+00
0.00000000000e+00
1.00000000000e+00
5.00000000000e+00
1.00000000000e+00
1.00000000000e+00

</DataArray>
</Points>
<Cells>
<DataArray type="Int64" Name="connectivity" format="ascii">
0
4
5
15
2
6
7
3
4
8
9
5
6
10
11
7
8
12
13
9
10
14
1
11
16
20
21
17
18
22
23
19

</DataArray>
<DataArray type="Int64" Name="offsets" format="ascii">
8
16
24
32

</DataArray>
<DataArray type="Int64" Name="types" format="ascii">
12
12
12
12

</DataArray>
</Cells>
<CellData>
<DataArray type="Int64" Name="material" format="ascii">
1
1
2
1

</DataArray>
</CellData>
</Piece>
</UnstructuredGrid>
</VTKFile>
