<?xml version="1.0"?>
<VTKFile type="UnstructuredGrid" version="1.0" byte_order="LittleEndian" header_type="UInt64">
  <UnstructuredGrid>
    <Piece NumberOfPoints="98" NumberOfCells="475">
    <FieldData>
        <DataArray Name="TimeValue" NumberOfTuples="1" type="Float64" format="ascii" RangeMin="0.122654987" RangeMax="0.122654987">
          0.1226549870000000
        </DataArray>
        <DataArray Name="TMSTEP" NumberOfTuples="1" type="Int64" format="ascii" RangeMin="0" RangeMax="34">
          0 1 2 3 4 5 6 7 8 9 10 11 12 13 14 15 16 17 18 19 20 21 22 23
          24 25 26 27 28 29 30 31 32 33 34
        </DataArray>
        <DataArray Name="Energy" NumberOfTuples="1" type="Float64" format="ascii" RangeMin="0.016429614650591562" RangeMax="0.9337077831017695">
          0.0164296146505916 0.2803243727777717 0.3538453412162437 0.2543860430098172 0.3653367608279918 0.5433881538799702
          0.9337077831017695 0.3064515895847083 0.7644656354531858 0.0729523903831968 0.8066849611478607 0.7060509035226120
          0.9073932679108058 0.7591569884705360 0.7100865957385716 0.3022718758961325 0.4734514136538924 0.2524340972970325
          0.2375056023730666 0.2697535243948739 0.1247090585413141 0.0594970666161930 0.5234710576573579 0.2963465624660002
          0.4073780284746817 0.5898444430662940 0.5376633906135346 0.2523496949393512 0.2950585682258576 0.0337239190957914
          0.4655686779118795 0.8061877687761208 0.7596364864710505 0.3173492498527114 0.3724443513696593
        </DataArray>
    </FieldData>
    <PointData Scalars="temp" Vectors="force" Tensors="stress" Normals="normals">
        <DataArray Name="temp" NumberOfComponents="1" type="Float64" format="ascii" RangeMin="0.018890726796434" RangeMax="0.9901101845862561">
          0.5232633927110754 0.3560494105104665 0.9243751540367312 0.6175543967037361 0.6431716315977716 0.9681967182176967
          0.2132244920543770 0.6320226124400673 0.4469755558450341 0.4672242211058258 0.3983165366318399 0.3844327849581031
          0.7481868168265932 0.2823305501768082 0.1642422399487951 0.2042679998357511 0.9583212604144772 0.3995133455800379
          0.5459642208501608 0.5980078810702200 0.3697840808569901 0.5774564390907218 0.0188907267964340 0.3913319566374115
          0.7520363698888020 0.6282640504752013 0.2676273113183325 0.2850348633895688 0.4189057900623258 0.3503471398017745
          0.3738729779940742 0.9527908609710527 0.1033057882032156 0.6901719117150532 0.4479244816396298 0.9554385688908371
          0.7526201947901212 0.5781336472337527 0.0978850865991930 0.5135064188216244 0.8000899070397371 0.3959202754895073
          0.8492935406266832 0.7937251451606406 0.4464123414449421 0.9813208346604262 0.7373369419320472 0.6273163708860597
          0.6483978444880616 0.1790937076696563 0.0719047136309544 0.4316761847093894 0.8147514954267142 0.9005040018325876
          0.8433916884882821 0.3754627887077751 0.7568191563377502 0.6620139140721900 0.7351848304472470 0.8813296203627071
          0.4451442568583581 0.8044077586000425 0.9881296506924903 0.8007171139085076 0.1122933754038044 0.1225818159593819
          0.8371086843337281 0.7143849440885646 0.9591649145166879 0.2092711406317759 0.5374244377133548 0.2925351539696085
          0.4384385269069316 0.1940536814971002 0.0827238908345980 0.7820840269081437 0.5888742944562425 0.1859630381347580
          0.0622405655244201 0.8739365092016919 0.4687186569172690 0.5588545132040584 0.0378394211451073 0.2422193745769267
          0.3490386367778775 0.6933862474850077 0.2952924156228479 0.0879634980994813 0.3279634050480208 0.0601338670265295
          0.8533894093211698 0.2487080178434682 0.3710769478710441 0.8782347845861201 0.3783466656688965 0.1166112360801882
          0.9901101845862561 0.5027116964030280
        </DataArray>
        <DataArray Name="2-components" NumberOfComponents="2" type="Float64" format="ascii" RangeMin="0.0010208312253622287" RangeMax="0.9993545168104067">
          0.4627020356312563 0.4120616483970365 0.5736699127889473 0.9126731480120107 0.7336739003921452 0.3992498796330022
          0.4812826274288743 0.9669339304375286 0.1580401628504364 0.8001938766160284 0.8266861893386148 0.2739828527691759
          0.1508886422362052 0.6744856149151480 0.0527138156853354 0.4504940568909971 0.5385666376349413 0.7457947207626882
          0.5922242368062245 0.2623683792345196 0.8470910367718487 0.8278307676005318 0.7317376938000214 0.1872340444831171
          0.1552552107172562 0.3639980708666333 0.4950482563742492 0.0496616762418570 0.5760479711484756 0.2685279370791880
          0.7728632975228348 0.3113905889553356 0.1685857020553462 0.3356741820383118 0.7890122122989706 0.3195387799521584
          0.5126450211308102 0.2782755329550120 0.4682567948746995 0.0208183862029978 0.0285868626670726 0.4006207149656305
          0.5070546371175896 0.5251035008720317 0.0917050510075382 0.5751657807713135 0.5995756534338390 0.3734347177265993
          0.3058080166025725 0.7114091115989954 0.4484035808735372 0.6092161258290444 0.3510543242421080 0.1591633183234727
          0.2143168852683055 0.2737063913486105 0.3733076469004174 0.6554089827643977 0.4734615157502536 0.8301302893255217
          0.2303390401359008 0.5929254085025851 0.1676632842389342 0.7474109250942221 0.3336272302620839 0.0103220237097095
          0.5389619081968032 0.5221598576513335 0.6146378340835578 0.1222057637465755 0.7067122860920344 0.5460885123623402
          0.7969703178237786 0.3986583407098296 0.0984072556183255 0.6058545025775685 0.9255852384240704 0.1635510257125538
          0.3375904372793096 0.9673248605215103 0.4127432599730957 0.6161143953631395 0.7012437382829652 0.7976774149994063
          0.6413941303188798 0.3677689618858744 0.3418686477830903 0.6912855254086586 0.4905290597083557 0.7268470151976125
          0.2853230793747563 0.0901691845772395 0.6528703933884142 0.9993545168104067 0.4874396293658186 0.4212702523392217
          0.2111358900709007 0.0978343541982857 0.2295313464670893 0.7800370180232973 0.6628431644700030 0.0236369069400759
          0.7761005874330426 0.2674408228940450 0.2884275016865393 0.9889892027464067 0.9144972327232375 0.1326559500398594
          0.7977858828205963 0.5792544380880793 0.1094810743231001 0.6045320041679991 0.7476345849597080 0.3985388839995314
          0.5407068188229355 0.6070772123216759 0.0010208312253622 0.2862929621730980 0.1366837639703210 0.9970238256312034
          0.0755427778230278 0.0547987295395927 0.3451083263976263 0.0594517182353566 0.7064718127430778 0.9277770974773132
          0.0345771841747209 0.8566159534558571 0.3407945457710152 0.4403256955512704 0.6986256494093516 0.8511867378822612
          0.2322172828276953 0.5401340180472524 0.3883719878218147 0.5896287444167421 0.0827641866316455 0.1758964975020876
          0.9442467288841149 0.5984405055813532 0.0153058850329763 0.4488974341215151 0.8476934921216773 0.2976779883878502
          0.5555344139987856 0.4678425650611135 0.9589223335397612 0.6707018372112837 0.9238053679123880 0.3799495696913897
          0.2474732354856052 0.3599837035712170 0.5114803579122723 0.1471773490395593 0.6146602825960759 0.2443141861279541
          0.3906009998517247 0.0149205919557579 0.5291072977929402 0.4586761633480204 0.1944515479646832 0.8774092014552445
          0.9680738754125490 0.3877317711718616 0.1036364490911228 0.5510319749454550 0.7977432955297401 0.1756845492190215
          0.6873266005900069 0.0638169425661527 0.3017065997863499 0.7405759172551262 0.5349868244354462 0.7534109227763931
          0.4822624545223297 0.3872353067076433 0.4796925818195262 0.2872563151214357 0.1753059934417290 0.1550767746705586
          0.7733313678822326 0.8350078375587994 0.9733887963783096 0.7741052487155705 0.6214213730968958 0.7330206553019076
          0.5527974404646830 0.5720387542265856 0.4189214757101666 0.1797945954243279 0.5598540634451057 0.8235961938031503
          0.6075129593765624 0.8829185241789297 0.7724621007855713 0.7932694153879861
        </DataArray>
        <DataArray Name="3-components" NumberOfComponents="3" type="Float64" format="ascii" RangeMin="0.00697574272128354" RangeMax="0.9957022707363694">
          0.3959370177104977 0.1321346928415144 0.9957022707363694 0.7685426750678167 0.1719334355043084 0.5786116554953625
          0.3578992394223189 0.2087049827857473 0.0867848175941277 0.9738092382957999 0.3438004232440458 0.2824673622577308
          0.2870075774442319 0.1607377784375679 0.8768668708831532 0.1244958486220122 0.8573491707866162 0.1888349912938931
          0.7685116737854183 0.4553873222794823 0.8311583211375122 0.6666394321633687 0.0443430075121561 0.2317451464654704
          0.2511086550854469 0.5997892953022738 0.2580011944759319 0.1056152415000738 0.8835771520151523 0.7557616651218442
          0.3213389193168895 0.8275241819878504 0.1353746771467994 0.5042917772585707 0.3759956205842707 0.7034740747478586
          0.6080430138505351 0.4500949396457234 0.2576851276395377 0.7964624173407814 0.5560810820406369 0.8892321897259500
          0.2319926101087547 0.4802646347532441 0.6647298874362092 0.1052122523817566 0.6598493266295095 0.2195761621627670
          0.8737595445094803 0.6145429757100416 0.9156281741412381 0.2370173593801176 0.3173940265653620 0.1007042731619506
          0.6988072054049057 0.6633938069228656 0.7249879345874023 0.9656076166206068 0.2275105582124937 0.5580406015699837
          0.8957665691828443 0.1975472176705592 0.2844953648451570 0.8548280785700196 0.5235536689366301 0.3297431860330982
          0.4640132788637400 0.3629261462478558 0.9544447034978267 0.5380811139528734 0.4856163353574064 0.2966615355065241
          0.7650321604379152 0.7648871752853855 0.7670897526064692 0.1909092321679240 0.6395939271109153 0.2971911998494829
          0.5701139555876044 0.7775639544858216 0.6950836157538216 0.5175718823378442 0.5578195817747035 0.6225548536632970
          0.7171713554534899 0.9216246419592604 0.6807238492162723 0.5330893826749662 0.6006531048830143 0.8105302718092130
          0.7606692333746795 0.0069757427212835 0.7460982533283740 0.6167475238767310 0.5967058946461570 0.0285497852108054
          0.4808599195139149 0.0426902775389643 0.6630874351467375 0.8044148675981959 0.0808886305227964 0.3899730854596851
          0.6552625957303970 0.2477229624653408 0.1706349843382318 0.6357817293055835 0.8493809869631977 0.7287949161378314
          0.4947790121851635 0.9886439445099069 0.8738850059132843 0.5654918923851298 0.8706722423325322 0.6069866402701093
          0.3490622736945519 0.6089291902525581 0.7966974650533819 0.6181902631506166 0.7912833499302144 0.1448331796392281
          0.4665218319008944 0.2466309700942084 0.6369144936209953 0.4316608827228484 0.7503716435593518 0.0078192047814943
          0.4875266978418982 0.6937034197459518 0.2185601535153547 0.7784148067726568 0.0634309575899157 0.8411006056284056
          0.5702430979617391 0.8147048198664099 0.2459193415366561 0.9172481593875291 0.4333331869592411 0.8892207762581561
          0.3816089750175916 0.6619434317188276 0.0620162079641979 0.2033061797258972 0.9776382224845614 0.5553505469357450
          0.9562803859609762 0.3790511539516196 0.3870793276633746 0.0291138151092121 0.9761561574059698 0.0898162195275950
          0.6451254378270467 0.2295039159038229 0.6216884832158212 0.1046633683707082 0.7800082984311015 0.2625326604105915
          0.2461482624859926 0.4551262560423621 0.1034935927271887 0.4706346767128244 0.6121409028164838 0.0675718685062875
          0.7647075655642430 0.6700970666270381 0.8032932340131698 0.9781582533046588 0.3529343436684904 0.4399046453981219
          0.8227422575131477 0.3429513409994397 0.0639093649921174 0.3679409552086901 0.9952671853877433 0.5794636736734783
          0.0250421702979845 0.8837083797377967 0.0772595488850731 0.3943233737429355 0.7928440583730763 0.7376047626055993
          0.9648552999829537 0.2389287114626962 0.5206322527545945 0.0983351798705611 0.1341331580296290 0.4171084795414063
          0.2039514517144266 0.6503634687846814 0.7493202001034418 0.1312064758182715 0.5982209183292252 0.1587164885432170
          0.4107506463783893 0.3724905226054058 0.2990520929065889 0.8922858466933502 0.9324682637370133 0.9429053998504120
          0.0315177594710983 0.1565990555302267 0.3934252430657919 0.7205489890694400 0.2745934717438567 0.4316896798345985
          0.1787980601100121 0.3622513668025094 0.5088174958142114 0.6835284807721292 0.2582854272624701 0.8964105163003068
          0.0816893960634201 0.4387754988844029 0.3994163890781560 0.5018358460287423 0.1761056689180331 0.9525922810449248
          0.1130890909337944 0.6005565331940966 0.1171311197652539 0.6623116175421665 0.2483652246957718 0.8956814911357948
          0.0412056597912570 0.5017321586649018 0.9767756478715170 0.9206156255162371 0.1720268663279906 0.2663498435365410
          0.4842175186955949 0.4838123810340171 0.7512248734982772 0.7779187666513998 0.2231153295144658 0.7714411303259398
          0.6995785343449606 0.4370020347064467 0.6088164574661412 0.2986845236243677 0.8580945635888099 0.8599436995056411
          0.6648275791311106 0.4804832862858324 0.6943789218683357 0.3820368751512481 0.1231743977126158 0.0362418358330681
          0.9171684905407427 0.5328515630437207 0.0578764728801873 0.5963642584780325 0.0651924536469431 0.5791318206998678
          0.7940223135363876 0.7782622990688464 0.8370854376737562 0.2173782516480345 0.4611514151709583 0.9407242619193813
          0.3169819924879888 0.0692986177346302 0.8077212168562448 0.6250211648947901 0.0728872313967656 0.1650115703288546
          0.9354869889229509 0.5132377189390548 0.7432805991013007 0.6345440325020101 0.7569005199240237 0.1108125324288713
          0.2114492762301085 0.7421209500209818 0.6516442772989443 0.2208372490886902 0.2579857362466821 0.1416135360243185
          0.6716476249724609 0.7509963062235276 0.4679781489940003 0.6662011241227854 0.7253673934646818 0.4565839967938599
          0.1659279070777949 0.7152392271177217 0.0094476341085491 0.6766546248504622 0.2116737146235712 0.5781205664492428
          0.3606986784532169 0.5373476404904579 0.0312391309332078 0.0935309527775745 0.5654258596612191 0.4933549421178993
                  </DataArray>
        <DataArray Name="4-components" NumberOfComponents="4" type="Float64" format="ascii" RangeMin="0.0021679325560567397" RangeMax="0.9960764996320337">
          0.4346748309322130 0.3220642954109557 0.0062263950599849 0.0737151178494130 0.0539201795235295 0.6798039006229138
          0.5500273845649549 0.5347282488901165 0.0767387959844464 0.6711429183806140 0.2176115805917300 0.4753594409825290
          0.9337516804459353 0.1021111481025472 0.2044204606938260 0.0037939495868201 0.3297690748477242 0.9241324203495521
          0.7982712785837751 0.0290714379783759 0.2692194427848057 0.9695141104130361 0.3090008720062422 0.8033901608302160
          0.8785521137838496 0.5179184112127887 0.9614782388606561 0.3175208696688832 0.7871958705242772 0.1804037800561749
          0.6161777555253786 0.0787254199622341 0.9051117007473103 0.0771094947349589 0.9588362141721601 0.5440923148342509
          0.8634945621439319 0.2405794370719853 0.4059594735292160 0.2925235663071808 0.7309894801048282 0.9700483721187488
          0.8318148406832973 0.4849158872100066 0.5017704290104593 0.3785371246509415 0.0205158449338875 0.9907952905474608
          0.1545654933391684 0.8782385634278128 0.6019489853133294 0.7906981230999223 0.2521929126363432 0.9716150255608206
          0.0672474944937144 0.4673686197663716 0.0337000095394104 0.5347613958477050 0.1164155276297819 0.9550270647902264
          0.5796338522273943 0.3412746271057875 0.8523204100536866 0.1972657806074329 0.8096282113891782 0.3047311952960293
          0.6500663143518912 0.8456637563467384 0.3906199913247039 0.0493153326814327 0.0953282361963043 0.4089217432664466
          0.9734786110287174 0.7813877948631190 0.0869568546620415 0.7417237568666443 0.5630292772867312 0.8719294300090183
          0.8044927228429963 0.3760636376786568 0.1306022635272779 0.2908653129507012 0.3505188438702752 0.2901130193235927
          0.0309346793427824 0.4092653096970628 0.9788367317195323 0.4223113198793231 0.0900433594418957 0.1787326345033293
          0.2966289948749271 0.6954539758304935 0.2832782062952210 0.3251789785540518 0.7688481562679232 0.4766407185048503
          0.9288534597190189 0.3341192036963977 0.9436476306446026 0.8789762057451738 0.0606108299327002 0.9254951873329387
          0.7412746153715273 0.8109872417934331 0.4360667170346966 0.7233454095760591 0.6976210279118584 0.2955977110451682
          0.0994604820813603 0.1875580422474142 0.8431228106210912 0.6213582623034001 0.6158399792301240 0.9406265592401716
          0.8845641277007388 0.9350856253927768 0.2970236729050861 0.8712474915967705 0.6910999373713885 0.3187032732785566
          0.0127516549008907 0.8755324934933010 0.5639212047451645 0.1967190822555136 0.9738387864540907 0.6568564085127088
          0.0096719914074663 0.4238716923324118 0.3943384132270378 0.5395962035976353 0.3564427828885958 0.2408352500616302
          0.7594055518045913 0.7632195886304822 0.4137798466081193 0.4414728807283862 0.5239588201936661 0.5330972627254891
          0.9141526095541878 0.6308069665444429 0.5170567967508454 0.1320175579472910 0.2107269322401846 0.5006082952330471
          0.2035097924389047 0.0963022916895151 0.2210449262099226 0.7032288137490658 0.7594632075907954 0.5307951061501054
          0.7791221651707082 0.2055779572836323 0.3038993788887456 0.9507640657060110 0.4129407322939939 0.1775009527834303
          0.1476062761103801 0.1751860610377259 0.3900752085745849 0.8771340742513215 0.9053619159104762 0.1499422572651893
          0.5299226127542728 0.6017653172250573 0.5825611801123584 0.9077714583272647 0.0333926144946559 0.9403067947106344
          0.9513428539123672 0.1294283488054044 0.5599745850942128 0.5002092571867237 0.3101720177615666 0.2570498427758426
          0.6925285230652607 0.8481230391570452 0.9023913754849137 0.4653197116872522 0.8343588953725288 0.5323583455178069
          0.9698861643934974 0.3651689258556947 0.7336718735725285 0.1820194265070771 0.8445718472607531 0.5474646979253884
          0.2322075641283595 0.6912306474614923 0.8500062721624883 0.3733605501034879 0.8263226430419690 0.2747654402923556
          0.9545209373912912 0.3296699434195455 0.7826851725864679 0.7138541423414184 0.2315888864270006 0.0733460418932701
          0.1756356942547472 0.7624657826895492 0.6818425011422762 0.0685766740745661 0.7342322955000906 0.6448893456865609
          0.8631534634780776 0.7044589671187292 0.1781400733194514 0.0021679325560567 0.8190454280205346 0.4312619102920555
          0.6394935088553390 0.7967423203529798 0.8190204888041620 0.9416594404382338 0.6201042942384526 0.1738725942406216
          0.7738118042832002 0.6071287017273929 0.0870481666389564 0.7432012102454443 0.9237631700338915 0.7810631857156576
          0.0349328970906532 0.2969893657396291 0.5616073704249127 0.3400407488638806 0.7444540735536782 0.9324778725138643
          0.8558043441061352 0.5802828505261981 0.1226883500492032 0.9548107291573014 0.2812101162883430 0.7594996646412645
          0.8706844004002662 0.6865157545384726 0.3921572523561300 0.9938555328427444 0.0277821928749561 0.6165672095462449
          0.8529127804327972 0.1296746105550149 0.5823831508340737 0.0787166148652411 0.5625656258546305 0.6709321102293893
          0.8795186102086254 0.3655529039279105 0.9861271470147479 0.6219021200220227 0.2456607546424717 0.1430283551634368
          0.7095634126775555 0.8844839331391212 0.2929268734988879 0.5292459357201055 0.7999125567263767 0.3938393298838327
          0.0779173567507878 0.1755080391241475 0.4096861261991742 0.4021716189532583 0.4547359500172682 0.0492860321797982
          0.7942792217892182 0.9002862103801966 0.3992702632827668 0.0660369934369037 0.8505320805710721 0.8081712350738882
          0.9203486378255146 0.9960764996320337 0.8474951833507133 0.4334195894064488 0.5617815174630071 0.5947670843027357
          0.4133033424162839 0.8937409566935907 0.2700343705927905 0.0948235338045266 0.6842625469207626 0.5014945494862222
          0.2522307775031744 0.7820925978870393 0.7714637260678685 0.7965744009105938 0.4735072325815897 0.9504240889829262
          0.6953276495115063 0.6434655937481862 0.1638404278327759 0.8647518323412186 0.0583797703190592 0.3915464972527239
          0.3712119287454854 0.4929505809076468 0.0908033574375213 0.0973487317478134 0.8487724289512398 0.1891653336774851
          0.1480491653681428 0.0953618731854768 0.3555016705334438 0.9074991999033221 0.7161993288634172 0.3651948520257585
          0.9709615761268796 0.4017999748172452 0.5701360573657055 0.4068154931013810 0.0484031197743122 0.4844193229072166
          0.4710094499422058 0.3118131639700438 0.2244074713954202 0.9392498489870604 0.4892734819918452 0.7702790880203438
          0.7228332355607522 0.4394290044770514 0.7848248769559599 0.1906259739733832 0.8728946738758022 0.6303244269855898
          0.6103126904509159 0.6027648125308889 0.4641812232729813 0.4403145195040455 0.8915631059756819 0.9526817513880453
          0.6744914201574055 0.1933940190335023 0.1808251253351189 0.5283378041687650 0.4796635589665347 0.1510116986842137
          0.6360216972908064 0.6241470345978163 0.3565309617228253 0.5893020447300374 0.3840173609318766 0.6046909059430293
          0.4824057390598910 0.6779790676660375 0.9253840005020626 0.4960604558816885 0.5976548249124793 0.2055736952576752
          0.3329173755296078 0.0788826243266596 0.1969118682348738 0.7786923539674371 0.6885004557608914 0.6680337510995742
          0.2217579246210193 0.7334088874081516 0.9074190705781047 0.3530356607587529 0.8963881567353671 0.4621180752233742
          0.5325122569157911 0.4125610329721848 0.1595399443964456 0.6700354874025585 0.8054193713734185 0.2011166964329153
          0.5341230254797968 0.1685572677743209 0.7890010701974242 0.7689367620100560 0.3836599344519114 0.7070988002860098
          0.6529215314806520 0.9697646099233084 0.0461643915022734 0.0746979468346618 0.0291917114032341 0.5078048489838317
          0.4734716119627428 0.6043209512926937 0.1995001161174197 0.3912745540103789 0.9285353752916242 0.2181704448454297
          0.0509446212487087 0.8544877645444079 0.2722579598956419 0.5014544723702276 0.1649853427749705 0.7326422727918571
          0.4115554398937067 0.8238914642374333
        </DataArray>
        <DataArray Name="force" NumberOfComponents="3" type="Float64" format="ascii" RangeMin="0.08989571965436483" RangeMax="19.99995156969667">
          4.4159952501842419 5.7044459103963030 3.6248174436225833 8.3029001912778533 0.8295609805150095 19.6498076303768769
          0.8090910135268747 13.3351992329582565 6.0142527138801594 1.2913298725336708 16.9433328108949439 6.9527768870344486
          16.6062486225934371 6.5278562261406563 18.6437307603822973 2.4437352892555508 1.6633451479828087 5.0543148363648749
          9.1827220272964478 7.9711737536140497 9.7287403759623814 7.9472447618033097 18.2124598095210324 0.2712325558303985
          15.4243745611333374 12.6092302709149440 12.7897085109120070 7.0360032652677624 11.2163020765023163 7.7826664170381505
          10.5631716524512456 5.9890202260424719 4.5375412927943914 17.3765324761486077 19.8658803444960910 10.7313501066834007
          11.0212143492149686 12.7877553895743983 15.5187648297037857 17.1139444884991399 2.0083525275737801 10.9483692540070621
          5.2810615385375819 3.1692574401544960 9.5090166162170409 10.0699554144312771 8.0364559605819768 14.5561738363533628
          5.7840378880136640 18.5236256660212604 6.5030598638702468 6.3851851992498609 1.6287460519381658 4.4717686096926546
          15.0545771630654137 6.8386565157022972 11.6712947573691483 1.7954789215334332 11.3610291920336479 12.1633562481618558
          14.3868544516039609 5.5469904612942678 10.1764682257492218 4.2062784379495666 9.8472987098435443 6.5081456477633974
          7.4281688671445822 11.5326715682046466 5.7604790305228759 15.2800472900963396 19.5966133090431320 5.1169931585760331
          19.3999423359240311 13.2186786967945267 12.8108070135861052 0.8714390765850122 15.5570153800528637 9.4854566158968758
          2.5057198424264771 4.3128105388990718 16.2987506340143575 14.0485458084109833 3.6240907757679142 11.2773677822058804
          17.1091922653270174 9.1739157668355524 7.7830847122862306 13.8428105810458355 2.4630192051015332 2.2918640291043646
          16.0681706126166297 12.2285327784391242 16.6168484304774005 16.9312869403050712 10.7592006794096804 11.9354897129193009
          0.0898957196543648 14.1038425802355771 1.9994414677853878 12.6403341370474251 10.1181501547852655 9.6123474307867891
          12.5349021388209145 17.0762757446535751 17.0604680518673355 6.4403012333117644 0.7218191027138254 19.8424926707678466
          10.8949884049943453 16.7769814864229545 10.1636851725126149 14.6312884692884388 2.1915397055131547 13.7909856440985283
          6.6415449254709085 12.6263845007989133 3.7583125407042917 15.7002137311026644 12.0348246464244664 10.0063093469771598
          19.5342445647463130 1.6077242259955171 14.4962551788949980 8.6365787355232460 12.5587408731347967 18.2171804671734812
          10.5601061616835050 8.7066613741772549 2.8041427559394982 0.9034794453471418 6.8499641433146525 8.5570735485176890
          3.9462233525976909 14.4290155481228055 18.1127952087482917 16.1129321103912062 12.0876097241622649 15.9155230205171332
          2.2800675134549753 17.3872009069308255 17.4320987519383479 10.9520103139743696 13.9217559352804621 11.7157179274388028
          17.0108392617277850 5.5069132530173963 11.0316683820758037 8.5242196785468209 14.7108863461344992 7.9367160003113639
          2.5373291216834426 18.5699968724382352 18.7472564404309594 15.8150602677235241 1.8526282638805269 7.4261324078665432
          4.8479040771558228 14.6795463984304426 14.4314198961832307 12.7759214309813522 8.2659201559469331 8.6089220840936811
          7.1936795712587687 16.4972888522456564 5.8187779537498141 1.0898283350925486 16.6776779519709528 18.2548161466438437
          4.1408167698632976 16.7612720853672883 9.3096018462743331 11.1588201465055015 19.8723034400374523 7.5350446466314462
          7.2797315907948867 3.8587008551056123 19.3722038787231412 11.9169969759777832 18.4906639897317788 13.0809184386617066
          11.3240571241466945 10.5205183942779108 1.3503126307202518 0.6498710409393360 5.7071139190436977 17.2417478143284200
          11.7372114943875445 2.9039476242257822 17.8901526005310885 1.5228270390221321 10.5077989495112654 14.7681662370549223
          3.0805314164994613 13.9162237834675029 11.1039566147739883 2.2223450043380355 14.0083569381191744 7.4760347332118826
          3.9163546040071595 5.9223121743160334 2.8448473677558761 1.1275347769174315 17.8194024123323196 15.9979419922558836
          8.8400718506781306 1.7571524763579394 1.3222698463214488 1.8859943994198392 18.0479607317055262 4.0136599035847347
          17.6689869182744488 14.9454952228947100 6.4845040339300670 11.3538652378852252 9.3183807303286148 13.3161284044669603
          16.4405493774112443 1.2060289262009283 11.7383653449104148 19.9999515696966697 3.1954599585716892 19.3728167926258763
          1.3388558572885345 12.4920833566481004 7.5764085217227972 1.4473953758244984 7.3877211416761979 4.7390851614533407
          5.6554906095292541 6.2046008529980856 14.1894935062558236 11.5590909786101506 17.9741226218441241 7.4409902514355046
          3.9203868742057013 11.5072956880947412 7.3858981602537455 5.2448956554303887 17.6781465401846773 19.8017449891093626
          5.7170036708636900 4.0564433282384238 8.9166028889628297 3.3719621357509055 18.5497700144786499 0.7160224021959483
          3.3565598138404784 8.2335920230227710 7.1953344522303953 8.2773126328235129 14.0194449331977449 17.0369396998245364
          12.6451572616319794 5.1027877170226832 19.6899540868201974 15.9419141962608570 3.6917821762290370 15.5490865025465368
          8.5975763117403154 5.4884069642978028 4.0367060277980009 19.5935767109987253 14.3288255515582037 15.7746888839656680
          18.3284519899941785 2.9370191888116493 13.9116832768932284 9.4883014599442621 17.4185603639367628 6.4984210483270939
          15.8977777345153974 12.3568308511152338 17.4416851773453310 19.7182830771031021 4.4851039096867984 15.6483597294618200
          15.9778025456679718 6.4819343688037474 3.1727852511496901 4.0746802312476742 15.0754239633805280 6.8312457665653259
          1.5840088863755808 3.2770444322026027 7.3983291235714272 6.6916646872454137 16.1543843686284525 17.1326905274366723
          3.5310135134504650 6.0328392093917760 8.1802730125976595 9.2945291002999024 17.3976114997648281 13.8872804123175175
                  </DataArray>
        <DataArray Name="stress" NumberOfComponents="9" type="Float64" format="ascii" RangeMin="0.10366250291882206" RangeMax="999.6679860735902">
          333.5440381991191430 194.9977003377188964 947.7425853791960435 268.0269660523924244 895.8050849314315656 257.2740421075787367
          874.9011847370660462 574.1106327060497279 648.0275470699264133 987.0040753735426051 534.3636313115445091 652.7438539988846742
          258.9842232086176068 986.8559257781282668 320.1650082336624337 343.7451608087470731 970.5789600851954901 521.4607896386577295
          855.3566246663248194 38.5766333076634780 871.2949103969036742 776.2666896146267845 399.2365779698423580 596.0458187413986479
          881.0321449641476192 998.1396711245520237 20.3410911750117052 321.7921218309842857 375.5156968172613574 694.4550995293362803
          849.5757505966470262 23.0225989209017499 962.2741543148886194 469.7813782385532591 394.3218441019940883 497.3734603405950452